/*--------------------------------*- C++ -*----------------------------------*\
| =========                 |                                                 |
| \\      /  F ield         | foam-extend: Open Source CFD                    |
|  \\    /   O peration     | Version:     4.0                                |
|   \\  /    A nd           | Web:         http://www.foam-extend.org         |
|    \\/     M anipulation  |                                                 |
\*---------------------------------------------------------------------------*/
FoamFile
{
    version     2.0;
    format      ascii;
    class       regIOobject;
    location    "0.0004/uniform";
    object      profilingInfo;
}
// * * * * * * * * * * * * * * * * * * * * * * * * * * * * * * * * * * * * * //

profilingInfo
(

    {
        id              17;
        parentId        15;
        description     "Foam::Time::writeObject - outputTime";
        calls           4;
        totalTime       0.57157;
        childTime       0;
        onStack         1;
    }

    {
        id              15;
        parentId        1;
        description     "Foam::Time::writeObject";
        calls           63;
        totalTime       0.571911;
        childTime       0.57157;
        onStack         1;
    }

    {
        id              1;
        description     "application::main";
        calls           1;
        totalTime       8.78974;
        childTime       4.25801;
        onStack         1;
    }

    {
        id              5;
        parentId        4;
        description     "functionObjectList::read";
        calls           1;
        totalTime       2e-06;
        childTime       0;
        onStack         0;
    }

    {
        id              16;
        parentId        1;
        description     "functionObjects_.execute()";
        calls           62;
        totalTime       0.000201;
        childTime       0;
        onStack         0;
    }

    {
        id              4;
        parentId        1;
        description     "functionObjects_.start()";
        calls           1;
        totalTime       8e-06;
        childTime       2e-06;
        onStack         0;
    }

    {
        id              6;
        parentId        1;
        description     "fvMatrix::solve_alpha1";
        calls           63;
        totalTime       0.106291;
        childTime       0.08702;
        onStack         0;
    }

    {
        id              13;
        parentId        1;
        description     "fvMatrix::solve_k";
        calls           63;
        totalTime       0.516396;
        childTime       0.49915;
        onStack         0;
    }

    {
        id              11;
        parentId        1;
        description     "fvMatrix::solve_omega";
        calls           63;
        totalTime       0.494301;
        childTime       0.46001;
        onStack         0;
    }

    {
        id              2;
        parentId        1;
        description     "fvMatrix::solve_pcorr";
        calls           1;
        totalTime       0.006152;
        childTime       0.005833;
        onStack         0;
    }

    {
        id              8;
        parentId        1;
        description     "fvMatrix::solve_pd";
        calls           63;
        totalTime       2.56275;
        childTime       2.55029;
        onStack         0;
    }

    {
        id              7;
        parentId        6;
        description     "lduMatrix::solver_alpha1";
        calls           63;
        totalTime       0.08702;
        childTime       0;
        onStack         0;
    }

    {
        id              10;
        parentId        9;
        description     "lduMatrix::solver_coarsestLevelCorr";
        calls           476;
        totalTime       0.153216;
        childTime       0;
        onStack         0;
    }

    {
        id              14;
        parentId        13;
        description     "lduMatrix::solver_k";
        calls           63;
        totalTime       0.49915;
        childTime       0;
        onStack         0;
    }

    {
        id              12;
        parentId        11;
        description     "lduMatrix::solver_omega";
        calls           63;
        totalTime       0.46001;
        childTime       0;
        onStack         0;
    }

    {
        id              3;
        parentId        2;
        description     "lduMatrix::solver_pcorr";
        calls           1;
        totalTime       0.005833;
        childTime       0;
        onStack         0;
    }

    {
        id              9;
        parentId        8;
        description     "lduMatrix::solver_pd";
        calls           63;
        totalTime       2.55029;
        childTime       0.153216;
        onStack         0;
    }
);


// ************************************************************************* //
