/*--------------------------------*- C++ -*----------------------------------*\
| =========                 |                                                 |
| \\      /  F ield         | foam-extend: Open Source CFD                    |
|  \\    /   O peration     | Version:     4.0                                |
|   \\  /    A nd           | Web:         http://www.foam-extend.org         |
|    \\/     M anipulation  |                                                 |
\*---------------------------------------------------------------------------*/
FoamFile
{
    version     2.0;
    format      ascii;
    class       volScalarField;
    location    "0.0009";
    object      k;
}
// * * * * * * * * * * * * * * * * * * * * * * * * * * * * * * * * * * * * * //

dimensions      [0 2 -2 0 0 0 0];

internalField   nonuniform List<scalar> 
28770
(
5.31865e-07
1.30483e-06
1.96138e-06
2.55899e-06
3.10471e-06
3.60718e-06
4.06775e-06
4.48776e-06
4.86822e-06
5.21018e-06
5.51485e-06
5.78353e-06
6.01762e-06
6.21861e-06
6.38798e-06
6.52712e-06
6.63729e-06
6.71955e-06
6.77471e-06
6.80326e-06
6.80542e-06
6.7811e-06
6.72986e-06
6.65109e-06
6.54402e-06
6.40778e-06
6.24159e-06
6.04482e-06
5.81716e-06
5.55877e-06
5.27043e-06
4.95364e-06
4.61075e-06
4.24502e-06
3.86063e-06
3.46273e-06
3.0573e-06
2.65105e-06
2.25129e-06
1.86564e-06
1.50177e-06
1.16706e-06
8.68168e-07
6.10658e-07
3.98543e-07
2.33929e-07
1.16669e-07
4.39164e-08
9.29581e-09
6.5729e-10
1.60898e-05
3.89613e-05
5.8427e-05
7.61698e-05
9.23872e-05
0.000107315
0.000120999
0.000133478
0.000144782
0.000154943
0.000163995
0.000171978
0.000178933
0.000184904
0.000189936
0.000194069
0.000197341
0.000199784
0.00020142
0.000202266
0.000202326
0.000201599
0.000200072
0.000197725
0.000194536
0.00019048
0.000185533
0.000179676
0.0001729
0.00016521
0.00015663
0.000147203
0.000137001
0.00012612
0.000114685
0.000102849
9.07904e-05
7.87088e-05
6.68215e-05
5.53553e-05
4.45385e-05
3.45903e-05
2.57093e-05
1.80605e-05
1.1763e-05
6.87955e-06
3.40562e-06
1.25702e-06
2.45883e-07
9.88423e-09
0.000106803
0.000269398
0.000404236
0.000526007
0.000637331
0.000739745
0.000833643
0.000919278
0.000996855
0.00106659
0.00112871
0.00118348
0.0012312
0.00127217
0.00130667
0.00133501
0.00135744
0.00137416
0.00138533
0.00139107
0.00139141
0.00138632
0.00137572
0.00135948
0.00133743
0.0013094
0.00127524
0.0012348
0.00118802
0.00113496
0.00107575
0.00101073
0.000940369
0.000865345
0.000786523
0.000704959
0.000621884
0.000538681
0.000456846
0.000377947
0.000303556
0.000235187
0.000174207
0.000121754
7.8652e-05
4.53364e-05
2.18036e-05
7.54834e-06
1.29392e-06
4.67736e-08
0.000354874
0.000939541
0.00142248
0.00185137
0.00224114
0.00259878
0.00292645
0.00322523
0.00349586
0.0037391
0.00395576
0.00414678
0.00431317
0.00445596
0.00457621
0.0046749
0.00475292
0.00481101
0.00484971
0.00486936
0.0048701
0.00485182
0.00481419
0.00475676
0.00467895
0.00458014
0.00445974
0.00431731
0.00415264
0.00396586
0.00375754
0.0035288
0.00328136
0.0030176
0.00274058
0.00245403
0.00216231
0.00187027
0.00158321
0.00130663
0.00104609
0.000806925
0.00059398
0.000411299
0.000261866
0.00014739
6.81008e-05
2.21312e-05
3.53313e-06
1.2384e-07
0.000837328
0.00230009
0.00352828
0.00460715
0.00557872
0.00646526
0.00727543
0.00801327
0.0086812
0.00928129
0.00981567
0.0102867
0.0106968
0.0110487
0.0113448
0.0115877
0.0117795
0.011922
0.0120165
0.0120638
0.0120642
0.0120174
0.0119226
0.0117785
0.0115837
0.0113366
0.0110359
0.0106802
0.0102692
0.00980309
0.00928344
0.00871301
0.00809616
0.00743885
0.00674879
0.00603533
0.00530935
0.00458306
0.00386968
0.00318304
0.00253708
0.00194528
0.00141994
0.000971493
0.000607813
0.000333515
0.000148744
4.63334e-05
7.14984e-06
2.47458e-07
0.00162212
0.00456697
0.00709772
0.00931667
0.0113
0.0130975
0.0147332
0.0162191
0.0175623
0.018768
0.019841
0.0207862
0.0216089
0.0223144
0.0229077
0.023394
0.0237773
0.0240613
0.0242487
0.0243409
0.0243383
0.0242402
0.0240449
0.0237498
0.023352
0.0228481
0.0222351
0.0215107
0.0206739
0.0197254
0.0186682
0.0175081
0.016254
0.0149182
0.0135166
0.0120682
0.0105955
0.00912334
0.00767889
0.00629056
0.00498713
0.0037966
0.0027448
0.00185374
0.00113987
0.000611648
0.000265662
8.06166e-05
1.22223e-05
4.20479e-07
0.00276454
0.00790919
0.0124311
0.0164142
0.019961
0.0231562
0.0260493
0.0286683
0.0310301
0.0331468
0.0350285
0.0366847
0.0381252
0.0393595
0.0403968
0.0412458
0.041914
0.0424075
0.0427309
0.0428867
0.0428753
0.0426952
0.0423431
0.0418144
0.0411036
0.0402047
0.0391123
0.0378223
0.0363327
0.0346448
0.0327643
0.0307015
0.0284726
0.0260997
0.0236112
0.0210416
0.0184311
0.0158246
0.013271
0.0108215
0.00852844
0.00644287
0.00461211
0.00307601
0.00186245
0.000981632
0.000418429
0.000124908
1.87436e-05
6.42782e-07
0.00430348
0.0124417
0.0197335
0.0262073
0.0319705
0.0371412
0.0418011
0.0460029
0.0497808
0.0531591
0.0561574
0.0587931
0.061083
0.0630432
0.0646888
0.0660337
0.0670901
0.0678676
0.0683731
0.0686104
0.0685799
0.0682787
0.0677013
0.0668399
0.0656852
0.0642275
0.0624578
0.0603693
0.0579589
0.055229
0.0521886
0.048855
0.0452548
0.0414243
0.0374102
0.0332693
0.0290674
0.0248784
0.0207824
0.0168639
0.013209
0.00990227
0.00702145
0.00462984
0.00276686
0.0014382
0.000604955
0.000178644
2.66255e-05
9.10615e-07
0.00625976
0.0182218
0.0291087
0.0388599
0.0475609
0.0553514
0.0623467
0.0686303
0.0742614
0.0792836
0.0837315
0.087635
0.0910215
0.0939165
0.0963436
0.098324
0.0998758
0.101013
0.101746
0.10208
0.102015
0.101546
0.100664
0.0993569
0.0976106
0.0954099
0.092741
0.0895937
0.0859633
0.0818536
0.0772788
0.0722653
0.0668539
0.0611009
0.0550778
0.0488717
0.042584
0.0363278
0.0302257
0.0244067
0.019002
0.0141404
0.00993891
0.00648824
0.00383565
0.00197238
0.000821711
0.000240817
3.57063e-05
1.21707e-06
0.00863606
0.0252489
0.0405574
0.0543866
0.0667737
0.0778618
0.0877936
0.0966862
0.10463
0.111694
0.117936
0.123402
0.128136
0.132177
0.135558
0.138312
0.140465
0.142035
0.143037
0.143478
0.143356
0.142665
0.141392
0.139517
0.13702
0.133879
0.130074
0.125591
0.120422
0.114574
0.108068
0.100943
0.0932572
0.0850937
0.076557
0.067774
0.058892
0.0500756
0.0415018
0.0333548
0.0258214
0.0190834
0.013306
0.00861073
0.00504484
0.00257223
0.00106395
0.000310102
4.5791e-05
1.55653e-06
0.0114169
0.0334625
0.0539745
0.0726496
0.0894543
0.104511
0.117981
0.130011
0.140727
0.150229
0.158603
0.165921
0.172245
0.177633
0.182134
0.185791
0.18864
0.190708
0.192014
0.192566
0.192361
0.19139
0.189632
0.187063
0.183652
0.17937
0.174188
0.168088
0.16106
0.153113
0.144276
0.134605
0.124183
0.113124
0.101576
0.0897146
0.0777466
0.0658997
0.054417
0.0435476
0.0335385
0.0246299
0.0170451
0.0109452
0.00636552
0.00322444
0.00132673
0.000385279
5.6707e-05
1.92691e-06
0.0145705
0.0427454
0.0691599
0.0933771
0.115269
0.13492
0.152493
0.168162
0.182086
0.194401
0.205225
0.214662
0.2228
0.229718
0.235485
0.240159
0.243789
0.24641
0.248045
0.248705
0.248386
0.247073
0.244739
0.24135
0.236867
0.231248
0.224458
0.21647
0.207274
0.196882
0.185335
0.172707
0.159111
0.144702
0.129678
0.114277
0.0987767
0.083481
0.0687105
0.0547844
0.0420064
0.0306665
0.0210641
0.0134275
0.00776596
0.00391854
0.00160784
0.000466071
6.84457e-05
2.33226e-06
0.018051
0.0529341
0.0858341
0.116179
0.143723
0.16851
0.190684
0.210436
0.227955
0.243415
0.256971
0.268761
0.278905
0.28751
0.294666
0.300451
0.304927
0.308141
0.310122
0.310881
0.310414
0.308699
0.305702
0.301378
0.295675
0.288542
0.279932
0.269812
0.25817
0.245023
0.230426
0.214475
0.197319
0.179161
0.160257
0.140921
0.121512
0.102427
0.0840745
0.0668486
0.0510886
0.0370873
0.0252604
0.0159789
0.00921391
0.00465128
0.00190979
0.00055453
8.11803e-05
2.80141e-06
0.0217998
0.0638229
0.103647
0.140548
0.17418
0.204533
0.231707
0.255901
0.27733
0.296205
0.31272
0.327051
0.339354
0.349765
0.358404
0.365368
0.370738
0.37457
0.376901
0.377746
0.377097
0.374925
0.371188
0.365828
0.358782
0.349984
0.339377
0.326922
0.312604
0.296447
0.27852
0.258949
0.237921
0.215693
0.192591
0.16901
0.145406
0.122284
0.100164
0.0795273
0.0607094
0.0438086
0.0295185
0.0185236
0.0106888
0.00544036
0.00224521
0.000653062
9.49169e-05
3.18878e-06
0.0257467
0.0751737
0.122185
0.165913
0.205927
0.242127
0.274574
0.303461
0.329025
0.351507
0.371142
0.388145
0.40271
0.415009
0.425189
0.433374
0.439661
0.444122
0.4468
0.447713
0.446849
0.444175
0.439637
0.433164
0.424679
0.414104
0.401369
0.386427
0.369265
0.349911
0.328455
0.305051
0.279932
0.253412
0.225891
0.197854
0.169865
0.142555
0.116595
0.0926221
0.0709842
0.0506702
0.0336399
0.0209482
0.0122577
0.00638735
0.00265287
0.000775187
0.000107107
3.99172e-06
0.0298122
0.0867309
0.141018
0.191682
0.238195
0.280354
0.318208
0.351918
0.381734
0.407927
0.430765
0.450506
0.467384
0.481605
0.49335
0.502767
0.509975
0.515059
0.518072
0.519034
0.51793
0.51472
0.509338
0.501703
0.491721
0.479299
0.464359
0.446844
0.426741
0.404088
0.378993
0.351644
0.322318
0.291392
0.259341
0.226742
0.194269
0.162692
0.132876
0.105835
0.0906406
0.0613251
0.0400457
0.02529
0.015469
0.00861993
0.00391555
0.00123439
0.000230921
7.5927e-06
0.0339073
0.0982275
0.1597
0.217236
0.270156
0.318234
0.361494
0.400028
0.434099
0.464005
0.49005
0.512526
0.531707
0.547839
0.561133
0.571766
0.579876
0.585565
0.588894
0.589885
0.588522
0.584758
0.578516
0.569699
0.558201
0.543916
0.526751
0.506645
0.483585
0.457618
0.428874
0.397572
0.364038
0.328709
0.292136
0.25498
0.218013
0.182112
0.148257
0.117368
0.0982841
0.0658009
0.0415605
0.0262501
0.0167199
0.00958971
0.00434658
0.00137203
0.000224615
7.3936e-06
0.0379362
0.109394
0.177782
0.241932
0.301039
0.354876
0.403348
0.446571
0.484785
0.518308
0.547474
0.572611
0.594031
0.612014
0.626805
0.638607
0.647581
0.653843
0.657463
0.658466
0.656836
0.652516
0.64542
0.635437
0.622448
0.606331
0.586984
0.564341
0.538388
0.509184
0.476877
0.441723
0.404094
0.364486
0.32352
0.281937
0.240583
0.200406
0.162425
0.127563
0.104802
0.0686013
0.0427515
0.027438
0.0180287
0.0102788
0.00453321
0.00144072
0.000242645
8.97036e-06
0.0417991
0.11997
0.194846
0.265204
0.330164
0.389352
0.44272
0.490389
0.532529
0.569475
0.601596
0.629251
0.652786
0.672516
0.688715
0.701614
0.711393
0.718185
0.722068
0.72307
0.721173
0.716313
0.708394
0.697294
0.682878
0.665013
0.643587
0.618528
0.589825
0.557546
0.521862
0.48306
0.441557
0.397908
0.352803
0.307058
0.261594
0.217409
0.175579
0.137133
0.112457
0.0729784
0.0459397
0.0301335
0.0199246
0.00984013
0.00403257
0.00140405
0.00024971
1.32314e-05
0.0453963
0.129708
0.210499
0.286511
0.356797
0.420876
0.47874
0.530442
0.576183
0.616272
0.651103
0.681069
0.706542
0.72787
0.745355
0.759253
0.769764
0.777032
0.781146
0.782136
0.779983
0.774616
0.76593
0.753791
0.738052
0.718569
0.695222
0.667934
0.636695
0.601585
0.562795
0.520642
0.475588
0.428242
0.37936
0.329835
0.280673
0.232961
0.187867
0.14659
0.120525
0.0791369
0.0506219
0.033671
0.0220707
0.0105611
0.00487906
0.00157486
0.000327162
2.46726e-05
0.0486324
0.138382
0.224392
0.305385
0.380368
0.448804
0.510566
0.565811
0.614743
0.657618
0.694848
0.726857
0.754045
0.776785
0.795405
0.810181
0.821332
0.829015
0.833325
0.834296
0.831906
0.82608
0.816703
0.803632
0.78671
0.765781
0.740719
0.711443
0.677947
0.640321
0.598773
0.553651
0.505456
0.454847
0.402641
0.349801
0.29742
0.246686
0.198873
0.155265
0.127591
0.0849718
0.0547483
0.036525
0.0237867
0.0111567
0.00513826
0.001529
0.000402046
2.87324e-05
0.0514208
0.145794
0.236221
0.321422
0.400369
0.472485
0.537555
0.595768
0.647358
0.692603
0.731867
0.765604
0.794241
0.818173
0.837749
0.853265
0.864953
0.87298
0.87745
0.878397
0.875798
0.869573
0.859601
0.845729
0.827791
0.805625
0.779096
0.748123
0.712702
0.672932
0.62904
0.581399
0.530543
0.477179
0.422174
0.366555
0.31148
0.258221
0.208137
0.162586
0.132918
0.089193
0.05741
0.0381477
0.0248056
0.0117498
0.0055156
0.00179796
0.000418738
1.9079e-05
0.0536873
0.151777
0.245737
0.334293
0.416397
0.491443
0.559176
0.619699
0.67338
0.720507
0.761392
0.796502
0.82629
0.851167
0.871501
0.887601
0.899711
0.908007
0.912597
0.913518
0.910744
0.904192
0.893734
0.879212
0.860451
0.837284
0.80957
0.777229
0.740258
0.698766
0.652993
0.603335
0.550357
0.494799
0.437576
0.379761
0.322562
0.267296
0.215374
0.168174
0.137007
0.0921675
0.0591625
0.039172
0.0255179
0.0125191
0.00571337
0.00194096
0.000362745
3.23272e-05
0.0553735
0.156203
0.252751
0.343754
0.428154
0.505326
0.574994
0.637204
0.692344
0.740794
0.782863
0.818967
0.849584
0.875141
0.896017
0.912533
0.924943
0.933427
0.938097
0.938991
0.936081
0.929282
0.918461
0.903454
0.884081
0.86017
0.83158
0.798227
0.760114
0.717355
0.670203
0.619071
0.564546
0.507396
0.44857
0.389178
0.330466
0.273782
0.220551
0.172179
0.14019
0.0947096
0.0607999
0.0402255
0.0262594
0.0130688
0.00606459
0.00209629
0.000412662
3.55506e-05
0.0564501
0.159024
0.257213
0.349755
0.435588
0.51408
0.584944
0.6482
0.70419
0.753419
0.79621
0.83292
0.864037
0.890001
0.911202
0.927965
0.94055
0.949142
0.953853
0.954722
0.95172
0.944758
0.933701
0.918381
0.898615
0.874229
0.845078
0.811082
0.772243
0.728684
0.680663
0.628607
0.573117
0.51498
0.455167
0.394812
0.335189
0.277675
0.223723
0.174794
0.142161
0.0968935
0.0624364
0.0412707
0.0268527
0.0131126
0.00624774
0.00230593
0.000699243
8.13134e-05
0.0568945
0.160188
0.259043
0.352191
0.438568
0.517545
0.588834
0.652451
0.708708
0.75816
0.801173
0.838082
0.869355
0.895443
0.916739
0.933573
0.946205
0.954822
0.959536
0.960385
0.957338
0.950305
0.939148
0.923698
0.903771
0.879189
0.849811
0.815553
0.776424
0.732547
0.684187
0.631774
0.575918
0.517415
0.457244
0.396549
0.336616
0.278836
0.224677
0.175593
0.142591
0.0980578
0.0633313
0.0418703
0.0271886
0.0133087
0.0063717
0.00244498
0.000771723
9.53151e-05
0.0567006
0.159678
0.258208
0.35101
0.437027
0.515634
0.586556
0.649818
0.705758
0.754912
0.79765
0.834318
0.865389
0.891308
0.912465
0.929188
0.941737
0.950296
0.954974
0.955808
0.952766
0.945756
0.93464
0.919248
0.899396
0.874908
0.845641
0.811516
0.77254
0.728838
0.680676
0.628485
0.572872
0.514633
0.454741
0.394336
0.334697
0.277209
0.223342
0.174524
0.141044
0.0975625
0.0629761
0.0415924
0.0270233
0.013186
0.00627662
0.00237294
0.000694945
7.17084e-05
0.0558723
0.157498
0.254703
0.346201
0.430944
0.508325
0.578087
0.640285
0.695319
0.743631
0.785597
0.821604
0.852119
0.877578
0.898363
0.914796
0.927131
0.935546
0.940148
0.940971
0.937981
0.931086
0.920148
0.904999
0.885456
0.861347
0.83253
0.798927
0.760545
0.71751
0.670084
0.618691
0.563931
0.506585
0.447611
0.38813
0.329395
0.272763
0.219674
0.171554
0.138101
0.09563
0.0615063
0.0405838
0.0263866
0.0128492
0.00601793
0.00218432
0.000567405
3.0761e-05
0.054425
0.153682
0.248584
0.337837
0.420415
0.495737
0.563575
0.624048
0.677566
0.724512
0.765236
0.800182
0.829805
0.854526
0.874716
0.890686
0.902679
0.910869
0.915355
0.916168
0.913273
0.906579
0.89595
0.88122
0.862211
0.838754
0.810711
0.778007
0.740648
0.698757
0.652589
0.602556
0.549243
0.493407
0.435979
0.378047
0.320828
0.265634
0.213856
0.166865
0.134032
0.092919
0.0596969
0.0393666
0.0255374
0.012305
0.00571627
0.00198558
0.000465963
2.40901e-05
0.0523677
0.148242
0.239871
0.325949
0.405482
0.477925
0.543097
0.601221
0.652609
0.697639
0.73668
0.770183
0.798591
0.822306
0.841685
0.857024
0.868553
0.876436
0.880766
0.88157
0.878811
0.872401
0.862206
0.848066
0.829808
0.80727
0.780319
0.748882
0.712965
0.672685
0.628289
0.580171
0.52889
0.475174
0.419915
0.364156
0.309068
0.255915
0.20604
0.16086
0.12877
0.0900801
0.0579427
0.0382483
0.0246889
0.011646
0.00543662
0.00183833
0.000408421
1.88609e-05
0.0497593
0.141306
0.228747
0.310774
0.386437
0.455239
0.517091
0.572217
0.620932
0.663551
0.700496
0.732206
0.759101
0.781567
0.799938
0.814492
0.825445
0.832947
0.837083
0.837878
0.835292
0.82924
0.819595
0.806202
0.788898
0.767525
0.74196
0.712131
0.678046
0.639812
0.597664
0.551975
0.503273
0.452247
0.399738
0.346735
0.294347
0.24378
0.196309
0.153053
0.122959
0.0864726
0.0557622
0.0370055
0.0238023
0.0109613
0.00509195
0.00155903
0.00034345
2.98481e-05
0.0466683
0.133026
0.215441
0.292616
0.363657
0.428124
0.48607
0.537643
0.583152
0.62294
0.657428
0.687036
0.712162
0.733164
0.750354
0.763987
0.774263
0.781317
0.785226
0.786009
0.783629
0.778002
0.769008
0.756502
0.74033
0.720345
0.696428
0.668514
0.636608
0.600811
0.561341
0.518544
0.472914
0.425091
0.375862
0.326146
0.276984
0.229519
0.184975
0.144718
0.114629
0.0813648
0.0525065
0.0347804
0.0224194
0.0102499
0.00479972
0.00160817
0.000292224
3.56585e-05
0.0431778
0.12359
0.200241
0.271859
0.337625
0.397214
0.45066
0.498206
0.540089
0.576693
0.608421
0.63567
0.658809
0.678169
0.694032
0.706632
0.716144
0.722693
0.726345
0.727115
0.724965
0.719817
0.71156
0.700059
0.68517
0.666759
0.644715
0.618976
0.589548
0.556522
0.520096
0.480591
0.438456
0.39428
0.348786
0.302821
0.257333
0.213346
0.171971
0.134194
0.106691
0.0748913
0.0477068
0.0314341
0.0205476
0.00960718
0.00405753
0.00148165
0.00026112
1.25744e-05
0.0393818
0.113217
0.183483
0.248957
0.308897
0.363142
0.411698
0.454792
0.492725
0.525869
0.554604
0.579298
0.600286
0.617865
0.632289
0.643764
0.652447
0.658443
0.661812
0.662563
0.660661
0.656033
0.648578
0.638172
0.624686
0.607994
0.587999
0.564643
0.537929
0.507939
0.474852
0.438955
0.400655
0.360485
0.319099
0.27727
0.235872
0.19585
0.158193
0.124092
0.0980024
0.0690507
0.0433053
0.0279464
0.0184009
0.0103633
0.00433871
0.00144018
0.000255401
1.07791e-05
0.0353801
0.102151
0.165555
0.224442
0.278198
0.326682
0.370031
0.408424
0.442192
0.471694
0.497282
0.51929
0.538016
0.553722
0.56663
0.576917
0.584719
0.590128
0.593192
0.593918
0.592272
0.58819
0.581578
0.572329
0.560324
0.545454
0.527629
0.506799
0.482964
0.456198
0.426657
0.394594
0.360372
0.324462
0.287447
0.250021
0.212979
0.177196
0.14362
0.113037
0.0921614
0.0652777
0.0408358
0.0259238
0.0167203
0.00966059
0.00431811
0.00133996
0.000214121
6.99074e-06
0.031274
0.0906535
0.146873
0.198875
0.24621
0.288764
0.326697
0.360251
0.389749
0.415524
0.437896
0.457158
0.473571
0.487358
0.498708
0.507773
0.514666
0.519464
0.522206
0.522897
0.521507
0.517978
0.512228
0.504162
0.493679
0.48068
0.465088
0.446859
0.425991
0.402548
0.376665
0.348561
0.31855
0.287044
0.254552
0.221685
0.189158
0.157809
0.128576
0.102563
0.0824631
0.0619967
0.039748
0.0250594
0.0156658
0.00888328
0.00403023
0.00124354
0.000204132
6.81009e-06
0.0271625
0.0789963
0.127889
0.172907
0.213703
0.250276
0.282782
0.311501
0.33674
0.358805
0.377976
0.394505
0.408611
0.420481
0.430271
0.438107
0.444083
0.448259
0.45067
0.451316
0.450172
0.447187
0.442291
0.435404
0.426437
0.415308
0.401949
0.386323
0.368428
0.348316
0.326102
0.301973
0.276193
0.249112
0.221166
0.192871
0.164832
0.137743
0.112452
0.0898574
0.0691747
0.0493709
0.0324527
0.0201525
0.0120843
0.0062476
0.00256538
0.000779496
9.75471e-05
3.41789e-06
0.0231379
0.0674535
0.109059
0.147167
0.181521
0.212207
0.239418
0.263434
0.284543
0.303013
0.319082
0.332959
0.344822
0.354825
0.363091
0.369721
0.374791
0.378351
0.380426
0.381016
0.3801
0.377634
0.373562
0.367814
0.360318
0.351005
0.339819
0.326726
0.311727
0.294864
0.276231
0.255982
0.234338
0.211587
0.188091
0.16428
0.14064
0.117695
0.0960351
0.0763624
0.0587284
0.0421609
0.0283545
0.0179887
0.0104171
0.0053038
0.00221025
0.000624814
9.06179e-05
3.05498e-06
0.0192843
0.0562902
0.0908275
0.122266
0.150452
0.175522
0.197708
0.21728
0.234493
0.249573
0.262715
0.274085
0.283824
0.29205
0.298863
0.304339
0.308538
0.311499
0.313242
0.313766
0.313053
0.311069
0.307767
0.303091
0.296982
0.289384
0.280251
0.269558
0.257303
0.243519
0.228284
0.211721
0.194006
0.175373
0.156114
0.136575
0.117149
0.0982415
0.0802361
0.0636325
0.0486978
0.0353011
0.0240246
0.015265
0.00882708
0.00445369
0.00183327
0.000528313
7.71365e-05
2.60522e-06
0.0156762
0.0457574
0.0736272
0.098799
0.121239
0.141117
0.158681
0.174176
0.187818
0.19979
0.210243
0.219306
0.227083
0.233665
0.239126
0.243524
0.246906
0.249301
0.250724
0.251175
0.250638
0.249086
0.246484
0.242787
0.237948
0.231924
0.224679
0.216192
0.206462
0.195515
0.183411
0.170247
0.156162
0.141337
0.125997
0.110411
0.0948878
0.0797496
0.0652825
0.0518084
0.0396306
0.0288721
0.0197968
0.0126215
0.00730567
0.00368366
0.00151066
0.000436242
6.38595e-05
2.15837e-06
0.0123783
0.0360774
0.0578354
0.0773098
0.09456
0.109789
0.123233
0.135102
0.145569
0.154775
0.16283
0.169827
0.175843
0.180944
0.185183
0.188604
0.191241
0.193116
0.194239
0.194611
0.19422
0.193046
0.191061
0.188232
0.184522
0.179899
0.174336
0.167817
0.16034
0.151927
0.142623
0.1325
0.121665
0.110254
0.0984377
0.0864141
0.0744116
0.0626789
0.0514431
0.0409279
0.031373
0.0229514
0.0158289
0.0101372
0.00588542
0.00297426
0.00122005
0.000352624
5.16574e-05
1.74611e-06
0.00944231
0.0274333
0.0437627
0.0582295
0.0709599
0.0821694
0.0920656
0.100817
0.108552
0.115371
0.121351
0.126556
0.131039
0.134845
0.138013
0.140574
0.142552
0.143964
0.144816
0.14511
0.144836
0.14398
0.142522
0.140437
0.137699
0.134284
0.130172
0.125352
0.119823
0.1136
0.106716
0.0992255
0.0912051
0.0827552
0.0739992
0.0650805
0.0561602
0.0474178
0.0390275
0.0311527
0.0239644
0.0176106
0.012214
0.00786514
0.0045879
0.00232798
0.000957517
0.000277229
4.06428e-05
1.37376e-06
0.00690737
0.0199645
0.0316449
0.0418763
0.0508259
0.0586955
0.0656524
0.0718198
0.077286
0.0821163
0.0863611
0.090062
0.0932541
0.095968
0.0982296
0.10006
0.101477
0.102491
0.103108
0.103327
0.103144
0.102547
0.101523
0.100055
0.0981235
0.095713
0.0928091
0.0894038
0.0854971
0.0810996
0.0762349
0.0709406
0.0652706
0.0592948
0.0530995
0.0467845
0.04046
0.0342483
0.0282731
0.0226515
0.0175002
0.0129269
0.009021
0.00584766
0.00343318
0.00175244
0.00072419
0.000210322
3.08733e-05
1.04357e-06
0.0047968
0.0137556
0.0216255
0.0284364
0.034367
0.0395845
0.0442094
0.0483225
0.0519784
0.0552164
0.0580669
0.0605556
0.0627044
0.0645331
0.0660584
0.0672945
0.0682524
0.0689397
0.0693603
0.0695141
0.0693975
0.0690037
0.0683233
0.067345
0.066057
0.064448
0.0625089
0.0602344
0.0576246
0.0546869
0.0514368
0.0478996
0.044111
0.0401171
0.035975
0.0317507
0.0275166
0.0233516
0.0193373
0.0155523
0.0120727
0.00896959
0.00630323
0.00411863
0.00243862
0.00125517
0.000522407
0.000152471
2.24298e-05
7.58291e-07
0.00311574
0.00883071
0.0137404
0.0179404
0.0215905
0.0248106
0.0276762
0.0302334
0.0325124
0.0345345
0.036317
0.0378746
0.0392206
0.0403667
0.0413233
0.0420991
0.0427011
0.0431338
0.0434
0.0434994
0.0434301
0.0431876
0.0427664
0.0421595
0.0413594
0.0403594
0.0391537
0.0377393
0.0361163
0.0342892
0.0322679
0.030068
0.0277117
0.0252276
0.0226507
0.0200217
0.0173853
0.0147895
0.0122841
0.00991757
0.00773644
0.00578363
0.00409597
0.00270163
0.00161695
0.000841817
0.000354117
0.000104173
1.53811e-05
5.20227e-07
0.00185066
0.00515375
0.00791766
0.0102613
0.0123022
0.0141115
0.0157287
0.0171764
0.0184691
0.0196174
0.0206305
0.0215162
0.0222818
0.0229339
0.0234785
0.0239204
0.0242635
0.0245107
0.0246632
0.0247212
0.0246834
0.0245474
0.0243102
0.0239677
0.0235158
0.0229506
0.0222691
0.0214694
0.0205517
0.0195186
0.0183757
0.017132
0.0157998
0.0143954
0.0129384
0.0114517
0.00996042
0.00849138
0.00707224
0.00573022
0.0044911
0.0033784
0.00241221
0.00160796
0.000975135
0.000515542
0.000220337
6.56667e-05
9.75933e-06
3.30406e-07
0.000968429
0.00262604
0.00397469
0.00511546
0.0061151
0.00700668
0.00780662
0.00852418
0.00916556
0.00973566
0.0102387
0.0106785
0.0110588
0.0113828
0.0116533
0.011873
0.0120436
0.0121667
0.0122428
0.0122721
0.012254
0.0121872
0.0120702
0.0119011
0.0116779
0.0113985
0.0110616
0.0106662
0.0102124
0.00970158
0.00913647
0.0085215
0.00786288
0.00716858
0.0064483
0.00571328
0.00497595
0.00424948
0.00354739
0.00288305
0.00226901
0.00171662
0.00123543
0.000832619
0.000512579
0.000276377
0.000120903
3.68399e-05
5.54512e-06
1.88144e-07
0.000416888
0.00108657
0.00161938
0.00207321
0.00247441
0.00283399
0.00315727
0.00344747
0.00370691
0.0039375
0.00414095
0.00431883
0.00447261
0.00460361
0.00471304
0.00480189
0.00487096
0.0049208
0.00495171
0.0049637
0.00495652
0.00492971
0.00488263
0.0048145
0.00472451
0.00461187
0.00447598
0.0043165
0.00413345
0.00392739
0.00369944
0.00345139
0.00318575
0.00290574
0.00261528
0.00231889
0.00202156
0.00172862
0.00144549
0.00117751
0.000929736
0.000706653
0.000512006
0.000348544
0.000217841
0.000120145
5.42628e-05
1.71694e-05
2.65578e-06
9.06505e-08
0.000127812
0.000316054
0.000465412
0.000594401
0.000709156
0.000812178
0.000904813
0.000987946
0.00106224
0.00112826
0.0011865
0.00123741
0.00128141
0.0013189
0.00135021
0.00137564
0.00139541
0.00140968
0.00141854
0.001422
0.00141996
0.00141232
0.00139888
0.00137941
0.00135368
0.00132148
0.00128261
0.001237
0.00118463
0.00112569
0.00106048
0.000989517
0.00091353
0.00083344
0.000750366
0.000665602
0.000580581
0.000496821
0.000415873
0.000339264
0.000268428
0.000204643
0.000148962
0.00010215
6.46208e-05
3.6391e-05
1.70436e-05
5.71411e-06
9.4023e-07
3.27044e-08
1.96887e-05
4.6428e-05
6.80817e-05
8.69225e-05
0.00010369
0.000118733
0.000132252
0.000144379
0.000155214
0.000164838
0.000173326
0.000180745
0.000187157
0.000192618
0.00019718
0.000200885
0.000203766
0.000205847
0.000207139
0.000207643
0.000207348
0.000206235
0.000204276
0.000201438
0.000197686
0.000192987
0.000187316
0.000180658
0.000173015
0.00016441
0.00015489
0.000144531
0.000133437
0.000121744
0.000109616
9.72434e-05
8.48343e-05
7.26112e-05
6.08006e-05
4.96255e-05
3.92949e-05
2.99947e-05
2.18774e-05
1.50529e-05
9.57979e-06
5.45806e-06
2.62165e-06
9.31988e-07
1.72846e-07
6.51183e-09
6.64064e-07
1.5747e-06
2.30834e-06
2.94535e-06
3.51189e-06
4.02e-06
4.47651e-06
4.88593e-06
5.25166e-06
5.57649e-06
5.86292e-06
6.11324e-06
6.32956e-06
6.51382e-06
6.66772e-06
6.7927e-06
6.88991e-06
6.96008e-06
7.00369e-06
7.02072e-06
7.01077e-06
6.97317e-06
6.90699e-06
6.8111e-06
6.68431e-06
6.52549e-06
6.33374e-06
6.10857e-06
5.85007e-06
5.55902e-06
5.23701e-06
4.88658e-06
4.51127e-06
4.11569e-06
3.70541e-06
3.28686e-06
2.86713e-06
2.45375e-06
2.05441e-06
1.67663e-06
1.32751e-06
1.01332e-06
7.39199e-07
5.08819e-07
3.24102e-07
1.85025e-07
8.93588e-08
3.23188e-08
6.44668e-09
4.13163e-10
3.55793e-07
4.76588e-08
2.21412e-09
6.48108e-11
8.48387e-11
1e-15
5.95173e-13
1.17682e-15
1.15367e-15
1e-15
1e-15
1e-15
1e-15
7.4463e-15
1e-15
2.2445e-11
1e-15
3.49782e-10
1.03422e-08
2.12613e-07
1e-15
3.38898e-06
1e-15
1e-15
3.18921e-09
1e-15
3.72086e-11
1e-15
2.86745e-14
2.98621e-15
2.56654e-14
1e-15
6.11672e-13
1e-15
1e-15
7.5415e-10
1e-15
4.36282e-08
9.97133e-07
1.86218e-05
6.53275e-08
7.42032e-07
1.17943e-09
1e-15
7.26485e-10
1e-15
6.14525e-12
1e-15
3.81338e-15
1.2604e-15
5.53152e-15
1e-15
1.44374e-13
1e-15
1.93494e-14
1.36053e-10
1e-15
9.47635e-09
2.19896e-07
4.57282e-06
4.17457e-10
6.51063e-09
3.25644e-08
8.95827e-08
1.83938e-07
3.1854e-07
4.9308e-07
7.04406e-07
9.47029e-07
1.21368e-06
1.49597e-06
1.78499e-06
2.07202e-06
2.34899e-06
2.60896e-06
2.84637e-06
3.05725e-06
3.2392e-06
3.39132e-06
3.51409e-06
3.60909e-06
3.67878e-06
3.72625e-06
3.75493e-06
3.7684e-06
3.77018e-06
3.76361e-06
3.75167e-06
3.73705e-06
3.72202e-06
3.70854e-06
3.69825e-06
3.69253e-06
3.69266e-06
3.69975e-06
3.71485e-06
3.73898e-06
3.77319e-06
3.81854e-06
3.87612e-06
3.94702e-06
4.03224e-06
4.13266e-06
4.24892e-06
4.38124e-06
4.5293e-06
4.69212e-06
4.86793e-06
5.05423e-06
5.24786e-06
5.4452e-06
5.64251e-06
5.83611e-06
6.02265e-06
6.19925e-06
6.3636e-06
6.51406e-06
6.64956e-06
6.7697e-06
6.87459e-06
6.96479e-06
7.0412e-06
7.10497e-06
7.1574e-06
7.19983e-06
7.23364e-06
7.26011e-06
7.28048e-06
7.29585e-06
7.3072e-06
7.31534e-06
7.32098e-06
7.32467e-06
7.32684e-06
7.32782e-06
7.32781e-06
7.32691e-06
7.32514e-06
7.32247e-06
7.31879e-06
7.31392e-06
7.30763e-06
7.29962e-06
7.28955e-06
7.27701e-06
7.26157e-06
7.24278e-06
7.22018e-06
7.19329e-06
7.16168e-06
7.12501e-06
7.08301e-06
7.0356e-06
6.98294e-06
6.92556e-06
6.86453e-06
6.80178e-06
6.74062e-06
6.68669e-06
6.64995e-06
6.58144e-09
1.74621e-07
9.39503e-07
2.63035e-06
5.43453e-06
9.43741e-06
1.46292e-05
2.09157e-05
2.81326e-05
3.60635e-05
4.44577e-05
5.30509e-05
6.15828e-05
6.98139e-05
7.75377e-05
8.45894e-05
9.08508e-05
9.6251e-05
0.000100764
0.000104404
0.000107218
0.00010928
0.000110682
0.000111526
0.000111918
0.000111965
0.000111763
0.000111404
0.000110965
0.000110515
0.000110112
0.000109803
0.000109632
0.000109635
0.000109846
0.000110295
0.000111012
0.00011203
0.00011338
0.000115094
0.000117204
0.000119741
0.00012273
0.000126191
0.000130131
0.000134539
0.000139387
0.000144623
0.000150171
0.000155937
0.000161814
0.00016769
0.000173455
0.000179009
0.000184267
0.00018916
0.00019364
0.000197674
0.00020125
0.000204373
0.000207058
0.000209333
0.000211232
0.000212792
0.000214056
0.000215063
0.000215851
0.000216458
0.000216917
0.000217255
0.000217498
0.000217666
0.000217776
0.000217841
0.000217871
0.000217871
0.000217844
0.000217792
0.000217712
0.000217603
0.000217458
0.000217271
0.000217032
0.000216732
0.000216359
0.0002159
0.00021534
0.000214668
0.000213867
0.000212927
0.000211835
0.000210586
0.000209175
0.000207608
0.0002059
0.000204083
0.000202215
0.000200393
0.000198785
0.000197685
3.31118e-08
9.51591e-07
5.77157e-06
1.71391e-05
3.6332e-05
6.38617e-05
9.96246e-05
0.000142949
0.000192686
0.000247325
0.000305128
0.000364263
0.000422933
0.000479487
0.000532504
0.000580854
0.000623731
0.000660654
0.000691453
0.000716235
0.000735335
0.000749268
0.000758671
0.000764254
0.000766754
0.000766893
0.000765355
0.00076275
0.000759623
0.000756443
0.000753599
0.000751427
0.000750212
0.000750205
0.000751637
0.000754719
0.00075966
0.000766676
0.000775984
0.000787809
0.000802371
0.000819884
0.000840531
0.000864442
0.000891669
0.000922151
0.000955685
0.000991911
0.00103031
0.00107022
0.00111089
0.00115155
0.00119143
0.00122985
0.00126622
0.00130005
0.00133101
0.00135889
0.00138361
0.00140518
0.00142373
0.00143945
0.00145257
0.00146335
0.00147209
0.00147905
0.0014845
0.0014887
0.00149188
0.00149422
0.00149591
0.00149708
0.00149785
0.00149831
0.00149852
0.00149852
0.00149834
0.00149798
0.00149743
0.00149668
0.00149568
0.00149439
0.00149275
0.00149068
0.00148811
0.00148494
0.00148108
0.00147644
0.00147092
0.00146443
0.0014569
0.00144828