/*--------------------------------*- C++ -*----------------------------------*\
| =========                 |                                                 |
| \\      /  F ield         | foam-extend: Open Source CFD                    |
|  \\    /   O peration     | Version:     4.0                                |
|   \\  /    A nd           | Web:         http://www.foam-extend.org         |
|    \\/     M anipulation  |                                                 |
\*---------------------------------------------------------------------------*/
FoamFile
{
    version     2.0;
    format      ascii;
    class       volScalarField;
    location    "0.0009";
    object      nut;
}
// * * * * * * * * * * * * * * * * * * * * * * * * * * * * * * * * * * * * * //

dimensions      [0 2 -1 0 0 0 0];

internalField   nonuniform List<scalar> 
28770
(
2.83518e-14
6.95556e-14
1.04554e-13
1.36411e-13
1.65501e-13
1.92286e-13
2.16837e-13
2.39226e-13
2.59507e-13
2.77736e-13
2.93977e-13
3.08299e-13
3.20778e-13
3.31492e-13
3.4052e-13
3.47937e-13
3.5381e-13
3.58195e-13
3.61135e-13
3.62657e-13
3.62773e-13
3.61476e-13
3.58745e-13
3.54545e-13
3.48838e-13
3.41576e-13
3.32717e-13
3.22228e-13
3.10092e-13
2.96318e-13
2.80948e-13
2.64061e-13
2.45783e-13
2.26286e-13
2.05796e-13
1.84586e-13
1.62974e-13
1.41318e-13
1.20008e-13
9.94506e-14
8.0054e-14
6.22115e-14
4.62789e-14
3.2552e-14
2.12449e-14
1.24699e-14
6.21918e-15
2.34103e-15
4.95526e-16
3.50377e-17
5.95891e-12
1.22299e-11
1.80884e-11
2.35474e-11
2.85553e-11
3.31679e-11
3.73969e-11
4.12537e-11
4.47474e-11
4.78878e-11
5.06856e-11
5.31528e-11
5.53024e-11
5.71479e-11
5.8703e-11
5.99804e-11
6.09917e-11
6.17465e-11
6.22523e-11
6.25137e-11
6.25325e-11
6.23078e-11
6.18356e-11
6.11103e-11
6.01248e-11
5.88712e-11
5.73421e-11
5.55319e-11
5.34377e-11
5.1061e-11
4.8409e-11
4.54956e-11
4.23424e-11
3.89794e-11
3.54453e-11
3.17872e-11
2.80602e-11
2.43261e-11
2.06522e-11
1.71083e-11
1.37652e-11
1.06905e-11
7.94557e-12
5.58135e-12
3.63455e-12
2.12402e-12
1.04689e-12
3.73878e-13
5.54882e-14
5.49514e-16
1.57197e-10
2.6486e-10
3.72659e-10
4.78849e-10
5.78572e-10
6.71062e-10
7.56079e-10
8.33684e-10
9.04011e-10
9.67235e-10
1.02356e-09
1.07323e-09
1.1165e-09
1.15365e-09
1.18494e-09
1.21064e-09
1.23098e-09
1.24614e-09
1.25628e-09
1.26148e-09
1.26178e-09
1.25717e-09
1.24756e-09
1.23282e-09
1.21283e-09
1.18742e-09
1.15643e-09
1.11976e-09
1.07734e-09
1.02922e-09
9.75529e-10
9.16562e-10
8.52755e-10
7.84719e-10
7.13238e-10
6.3927e-10
5.63931e-10
4.88474e-10
4.14256e-10
3.42694e-10
2.75214e-10
2.13182e-10
1.57826e-10
1.10154e-10
7.08638e-11
4.02621e-11
1.82929e-11
5.02101e-12
3.9816e-13
2.60038e-15
1.55227e-09
2.17986e-09
2.86632e-09
3.58736e-09
4.29146e-09
4.95697e-09
5.57421e-09
6.13995e-09
6.65361e-09
7.11579e-09
7.52772e-09
7.891e-09
8.20749e-09
8.47913e-09
8.7079e-09
8.89567e-09
9.04411e-09
9.15462e-09
9.22825e-09
9.26565e-09
9.26704e-09
9.23224e-09
9.16063e-09
9.05134e-09
8.90326e-09
8.71523e-09
8.48612e-09
8.21508e-09
7.90171e-09
7.54626e-09
7.14982e-09
6.71451e-09
6.2436e-09
5.74161e-09
5.21437e-09
4.66894e-09
4.11359e-09
3.55754e-09
3.01079e-09
2.48373e-09
1.98677e-09
1.52982e-09
1.12164e-09
7.69265e-10
4.77702e-10
2.50904e-10
9.55485e-11
1.90784e-11
1.13126e-12
6.88487e-15
8.71156e-09
1.07442e-08
1.32383e-08
1.6023e-08
1.88609e-08
2.16166e-08
2.42136e-08
2.66153e-08
2.88067e-08
3.07837e-08
3.25483e-08
3.41057e-08
3.54629e-08
3.66278e-08
3.76086e-08
3.84131e-08
3.90484e-08
3.95204e-08
3.98335e-08
3.99902e-08
3.99914e-08
3.98361e-08
3.95215e-08
3.90437e-08
3.83978e-08
3.75786e-08
3.65812e-08
3.54019e-08
3.40389e-08
3.24933e-08
3.07699e-08
2.88779e-08
2.68316e-08
2.46508e-08
2.23607e-08
1.9992e-08
1.75804e-08
1.51658e-08
1.27909e-08
1.05002e-08
8.33801e-09
6.34606e-09
4.56217e-09
3.02016e-09
1.75561e-09
8.17795e-10
2.58806e-10
4.27124e-11
2.30178e-12
1.37575e-14
3.38502e-08
3.85045e-08
4.49887e-08
5.26423e-08
6.07574e-08
6.88692e-08
7.66693e-08
8.39788e-08
9.07039e-08
9.68024e-08
1.02263e-07
1.07091e-07
1.11303e-07
1.1492e-07
1.17965e-07
1.20462e-07
1.22431e-07
1.2389e-07
1.24852e-07
1.25325e-07
1.2531e-07
1.24804e-07
1.23796e-07
1.22276e-07
1.20225e-07
1.17628e-07
1.14469e-07
1.10736e-07
1.06422e-07
1.01532e-07
9.60794e-08
9.00947e-08
8.36222e-08
7.6724e-08
6.94795e-08
6.19848e-08
5.4351e-08
4.6702e-08
3.91705e-08
3.18943e-08
2.50123e-08
1.86627e-08
1.29875e-08
8.1486e-09
4.35017e-09
1.79892e-09
5.00956e-10
7.56362e-11
3.9386e-12
2.33766e-14
1.02029e-07
1.10798e-07
1.2433e-07
1.41151e-07
1.59621e-07
1.78593e-07
1.97225e-07
2.14958e-07
2.31453e-07
2.46523e-07
2.60085e-07
2.72115e-07
2.82632e-07
2.91675e-07
2.99291e-07
3.05534e-07
3.10451e-07
3.14084e-07
3.16462e-07
3.17603e-07
3.17508e-07
3.16164e-07
3.13546e-07
3.09619e-07
3.04342e-07
2.97669e-07
2.89558e-07
2.79977e-07
2.68911e-07
2.56365e-07
2.42378e-07
2.27023e-07
2.10412e-07
1.92702e-07
1.74092e-07
1.54824e-07
1.35177e-07
1.15463e-07
9.60207e-08
7.72096e-08
5.94178e-08
4.30784e-08
2.87045e-08
1.69117e-08
8.31344e-09
3.14226e-09
8.13002e-10
1.17798e-10
6.04148e-12
3.57355e-14
2.56349e-07
2.71284e-07
2.95444e-07
3.27044e-07
3.62815e-07
4.00458e-07
4.38169e-07
4.74634e-07
5.08971e-07
5.40632e-07
5.69312e-07
5.94875e-07
6.17293e-07
6.36606e-07
6.5289e-07
6.66238e-07
6.76738e-07
6.84468e-07
6.89483e-07
6.91811e-07
6.91448e-07
6.8836e-07
6.82487e-07
6.73745e-07
6.62036e-07
6.47255e-07
6.29305e-07
6.08111e-07
5.83632e-07
5.55878e-07
5.24926e-07
4.90928e-07
4.54127e-07
4.14856e-07
3.73547e-07
3.30723e-07
2.86998e-07
2.43066e-07
1.99713e-07
1.57832e-07
1.18474e-07
8.29124e-08
5.26522e-08
2.9203e-08
1.34367e-08
4.78709e-09
1.1893e-09
1.68767e-10
8.5826e-12
5.06257e-14
5.61705e-07
5.85439e-07
6.24769e-07
6.77791e-07
7.39275e-07
8.05311e-07
8.72645e-07
9.38743e-07
1.00176e-06
1.06044e-06
1.114e-06
1.16202e-06
1.20431e-06
1.24084e-06
1.27169e-06
1.29699e-06
1.31686e-06
1.33142e-06
1.34076e-06
1.3449e-06
1.34383e-06
1.33745e-06
1.32562e-06
1.30818e-06
1.28491e-06
1.25559e-06
1.22001e-06
1.17802e-06
1.12951e-06
1.07449e-06
1.01309e-06
9.45587e-07
8.72442e-07
7.94298e-07
7.11994e-07
6.26571e-07
5.39284e-07
4.5162e-07
3.65351e-07
2.82633e-07
2.06106e-07
1.38898e-07
8.42361e-08
4.44185e-08
1.94837e-08
6.68787e-09
1.62347e-09
2.27654e-10
1.151e-11
6.76628e-14
1.1063e-06
1.14341e-06
1.20344e-06
1.28497e-06
1.38132e-06
1.48655e-06
1.5955e-06
1.70391e-06
1.80849e-06
1.90683e-06
1.99732e-06
2.07895e-06
2.15119e-06
2.21381e-06
2.26681e-06
2.31027e-06
2.34436e-06
2.3692e-06
2.38488e-06
2.3914e-06
2.38867e-06
2.3765e-06
2.3546e-06
2.32262e-06
2.28014e-06
2.22673e-06
2.16198e-06
2.08555e-06
1.99724e-06
1.89701e-06
1.78504e-06
1.66182e-06
1.52814e-06
1.38516e-06
1.23443e-06
1.07797e-06
9.18295e-07
7.58529e-07
6.02566e-07
4.55204e-07
3.22132e-07
2.09409e-07
1.22045e-07
6.18926e-08
2.62633e-08
8.80363e-09
2.10697e-09
2.93238e-10
1.4761e-11
8.65355e-14
1.99791e-06
2.05765e-06
2.14645e-06
2.26265e-06
2.40267e-06
2.55784e-06
2.72056e-06
2.88438e-06
3.04408e-06
3.19567e-06
3.33625e-06
3.46391e-06
3.57744e-06
3.67623e-06
3.76e-06
3.82874e-06
3.88251e-06
3.9214e-06
3.94542e-06
3.95447e-06
3.94831e-06
3.92652e-06
3.88856e-06
3.83373e-06
3.76128e-06
3.67039e-06
3.56031e-06
3.43038e-06
3.28017e-06
3.10953e-06
2.91873e-06
2.70852e-06
2.48025e-06
2.23597e-06
1.97855e-06
1.71184e-06
1.44083e-06
1.17188e-06
9.12913e-07
6.73278e-07
4.6312e-07
2.91676e-07
1.64574e-07
8.10624e-08
3.36203e-08
1.10953e-08
2.63098e-09
3.64398e-10
1.828e-11
1.07127e-13
3.35175e-06
3.45266e-06
3.57965e-06
3.73939e-06
3.93142e-06
4.14607e-06
4.37338e-06
4.60446e-06
4.83179e-06
5.04936e-06
5.25263e-06
5.43835e-06
5.60435e-06
5.74931e-06
5.87249e-06
5.97353e-06
6.05229e-06
6.10864e-06
6.1424e-06
6.15322e-06
6.14054e-06
6.10355e-06
6.04121e-06
5.9523e-06
5.83547e-06
5.68928e-06
5.51239e-06
5.30361e-06
5.06211e-06
4.78757e-06
4.48032e-06
4.14159e-06
3.77369e-06
3.38029e-06
2.96666e-06
2.54007e-06
2.11005e-06
1.68865e-06
1.29024e-06
9.30494e-07
6.24366e-07
3.83012e-07
2.1058e-07
1.01473e-07
4.14349e-08
1.3542e-08
3.19311e-09
4.40954e-10
2.20647e-11
1.29662e-13
5.27051e-06
5.449e-06
5.63025e-06
5.84567e-06
6.09655e-06
6.37801e-06
6.67798e-06
6.98518e-06
7.28964e-06
7.5831e-06
7.85904e-06
8.11257e-06
8.34022e-06
8.53965e-06
8.70936e-06
8.84842e-06
8.9562e-06
9.03217e-06
9.07572e-06
9.08601e-06
9.06189e-06
9.00189e-06
8.90419e-06
8.7667e-06
8.58712e-06
8.36306e-06
8.09223e-06
7.77264e-06
7.40285e-06
6.98225e-06
6.51139e-06
5.99236e-06
5.42921e-06
4.82848e-06
4.19972e-06
3.55608e-06
2.91456e-06
2.29588e-06
1.72312e-06
1.21898e-06
8.01745e-07
4.81562e-07
2.59174e-07
1.22749e-07
4.96549e-08
1.61705e-08
3.80498e-09
5.25283e-10
2.61746e-11
1.55745e-13
7.81747e-06
8.13807e-06
8.40042e-06
8.6909e-06
9.00726e-06
9.36009e-06
9.73715e-06
1.0125e-05
1.05115e-05
1.08861e-05
1.12402e-05
1.15671e-05
1.18618e-05
1.21205e-05
1.23408e-05
1.25209e-05
1.26593e-05
1.27548e-05
1.2806e-05
1.28113e-05
1.27686e-05
1.26753e-05
1.25285e-05
1.23246e-05
1.20601e-05
1.17311e-05
1.1334e-05
1.08655e-05
1.03235e-05
9.70713e-06
9.01737e-06
8.25795e-06
7.43601e-06
6.56294e-06
5.65525e-06
4.73517e-06
3.8306e-06
2.97372e-06
2.19773e-06
1.53148e-06
9.93132e-07
5.86541e-07
3.09734e-07
1.44744e-07
5.84145e-08
1.91423e-08
4.51634e-09
6.22182e-10
3.06551e-11
1.77281e-13
1.09915e-05
1.15545e-05
1.1939e-05
1.23268e-05
1.27261e-05
1.31547e-05
1.36101e-05
1.40785e-05
1.45466e-05
1.50019e-05
1.5434e-05
1.58342e-05
1.6196e-05
1.65141e-05
1.67848e-05
1.7005e-05
1.71722e-05
1.72841e-05
1.73382e-05
1.73315e-05
1.72606e-05
1.71214e-05
1.69091e-05
1.66184e-05
1.62437e-05
1.57792e-05
1.52195e-05
1.45599e-05
1.37971e-05
1.29302e-05
1.19616e-05
1.08976e-05
9.75048e-06
8.53913e-06
7.29025e-06
6.03869e-06
4.82627e-06
3.69867e-06
2.69957e-06
1.86246e-06
1.20036e-06
6.96573e-07
3.6093e-07
1.67158e-07
6.84998e-08
2.30567e-08
5.49284e-09
7.59592e-10
3.52222e-11
2.2192e-13
1.47131e-05
1.56545e-05
1.62196e-05
1.67394e-05
1.72486e-05
1.77571e-05
1.82894e-05
1.88344e-05
1.93786e-05
1.99085e-05
2.04124e-05
2.08801e-05
2.13034e-05
2.16757e-05
2.19917e-05
2.22469e-05
2.24374e-05
2.25593e-05
2.26085e-05
2.25805e-05
2.24697e-05
2.227e-05
2.19743e-05
2.15748e-05
2.10632e-05
2.04314e-05
1.96714e-05
1.8777e-05
1.7744e-05
1.65718e-05
1.52649e-05
1.38344e-05
1.22998e-05
1.06905e-05
9.04689e-06
7.41921e-06
5.86531e-06
4.44497e-06
3.21223e-06
2.20738e-06
1.66071e-06
9.07039e-07
4.66592e-07
2.22147e-07
9.7072e-08
3.60134e-08
9.85673e-09
1.60125e-09
1.14948e-10
6.30494e-13
1.88291e-05
2.03074e-05
2.11247e-05
2.18188e-05
2.24689e-05
2.30764e-05
2.36848e-05
2.43003e-05
2.49114e-05
2.55055e-05
2.60702e-05
2.65944e-05
2.70688e-05
2.74853e-05
2.78371e-05
2.81182e-05
2.83229e-05
2.84456e-05
2.84801e-05
2.84196e-05
2.82561e-05
2.79808e-05
2.75835e-05
2.70536e-05
2.63794e-05
2.55499e-05
2.45544e-05
2.33849e-05
2.20364e-05
2.05097e-05
1.88125e-05
1.69627e-05
1.49898e-05
1.29366e-05
1.08595e-05
8.82613e-06
6.91043e-06
5.18456e-06
3.7085e-06
2.51693e-06
1.84391e-06
9.95235e-07
4.94647e-07
2.35823e-07
1.07676e-07
4.13296e-08
1.13412e-08
1.8366e-09
1.11509e-10
5.95985e-13
2.31367e-05
2.53094e-05
2.6455e-05
2.73708e-05
2.8188e-05
2.89324e-05
2.96199e-05
3.02999e-05
3.09677e-05
3.16132e-05
3.22248e-05
3.27914e-05
3.3303e-05
3.37505e-05
3.41257e-05
3.4421e-05
3.46288e-05
3.47413e-05
3.475e-05
3.46454e-05
3.44167e-05
3.40516e-05
3.35367e-05
3.28575e-05
3.1999e-05
3.09465e-05
2.96867e-05
2.82096e-05
2.65103e-05
2.45914e-05
2.24659e-05
2.01602e-05
1.7716e-05
1.51918e-05
1.26618e-05
1.02111e-05
7.92873e-06
5.89615e-06
4.17608e-06
2.7993e-06
2.00567e-06
1.05801e-06
5.1858e-07
2.51493e-07
1.1872e-07
4.5388e-08
1.21325e-08
1.97174e-09
1.22e-10
7.24281e-13
2.74171e-05
3.04119e-05
3.19534e-05
3.31347e-05
3.41469e-05
3.50535e-05
3.58444e-05
3.65843e-05
3.72994e-05
3.79834e-05
3.86276e-05
3.92217e-05
3.97557e-05
4.02199e-05
4.06051e-05
4.0902e-05
4.11011e-05
4.11924e-05
4.11649e-05
4.10059e-05
4.07014e-05
4.02356e-05
3.9591e-05
3.87493e-05
3.76914e-05
3.63992e-05
3.48567e-05
3.30522e-05
3.09813e-05
2.86498e-05
2.60771e-05
2.32996e-05
2.03731e-05
1.73731e-05
1.43917e-05
1.15313e-05
8.89375e-06
6.56756e-06
4.61627e-06
3.06761e-06
2.18893e-06
1.14479e-06
5.66731e-07
2.81215e-07
1.33975e-07
4.21069e-08
1.03845e-08
1.83189e-09
1.17733e-10
7.80938e-13
3.1466e-05
3.53575e-05
3.73403e-05
3.88181e-05
4.00464e-05
4.11182e-05
4.20491e-05
4.28553e-05
4.36107e-05
4.43227e-05
4.49866e-05
4.55946e-05
4.61373e-05
4.6605e-05
4.69877e-05
4.72748e-05
4.7455e-05
4.75159e-05
4.74438e-05
4.72231e-05
4.68361e-05
4.62632e-05
4.54831e-05
4.44732e-05
4.32105e-05
4.16733e-05
3.98431e-05
3.77072e-05
3.52622e-05
3.25178e-05
2.9501e-05
2.62593e-05
2.28631e-05
1.94046e-05
1.59938e-05
1.27485e-05
9.78206e-06
7.18834e-06
5.03045e-06
3.33245e-06
2.38041e-06
1.26005e-06
6.33934e-07
3.19247e-07
1.50986e-07
4.60693e-08
1.28529e-08
2.11135e-09
1.57724e-10
1.45851e-12
3.5114e-05
3.99102e-05
4.23478e-05
4.41334e-05
4.55856e-05
4.68253e-05
4.78995e-05
4.87979e-05
4.95889e-05
5.03206e-05
5.09942e-05
5.16052e-05
5.21458e-05
5.26066e-05
5.29773e-05
5.3246e-05
5.33999e-05
5.34244e-05
5.33032e-05
5.30175e-05
5.25464e-05
5.18664e-05
5.09524e-05
4.97777e-05
4.83157e-05
4.65413e-05
4.44337e-05
4.19798e-05
3.91777e-05
3.60416e-05
3.26064e-05
2.8931e-05
2.50998e-05
2.12212e-05
1.74208e-05
1.38299e-05
1.05711e-05
7.74238e-06
5.40548e-06
3.57803e-06
2.55211e-06
1.3711e-06
6.95036e-07
3.51321e-07
1.65211e-07
4.94312e-08
1.37365e-08
2.07218e-09
1.94505e-10
1.69857e-12
3.82338e-05
4.38745e-05
4.67445e-05
4.88248e-05
5.04921e-05
5.18921e-05
5.30897e-05
5.40978e-05
5.49333e-05
5.5679e-05
5.63553e-05
5.69619e-05
5.74932e-05
5.79405e-05
5.82932e-05
5.85388e-05
5.86629e-05
5.86491e-05
5.84786e-05
5.81299e-05
5.75789e-05
5.67988e-05
5.57606e-05
5.44343e-05
5.27897e-05
5.0799e-05
4.84397e-05
4.56984e-05
4.25751e-05
3.90889e-05
3.52819e-05
3.12238e-05
2.70119e-05
2.27688e-05
1.86332e-05
1.47476e-05
1.12411e-05
8.21415e-06
5.7264e-06
3.78987e-06
2.68805e-06
1.45675e-06
7.3834e-07
3.72181e-07
1.74988e-07
5.29616e-08
1.50133e-08
2.48349e-09
2.06818e-10
1.13601e-12
4.07382e-05
4.71023e-05
5.03477e-05
5.26854e-05
5.45411e-05
5.60813e-05
5.73836e-05
5.84824e-05
5.9378e-05
6.01356e-05
6.08102e-05
6.14083e-05
6.19267e-05
6.23578e-05
6.26907e-05
6.29125e-05
6.30075e-05
6.29578e-05
6.27426e-05
6.2338e-05
6.17172e-05
6.08504e-05
5.97058e-05
5.825e-05
5.64503e-05
5.42766e-05
5.17052e-05
4.87226e-05
4.53309e-05
4.15533e-05
3.74389e-05
3.30662e-05
2.85437e-05
2.40051e-05
1.95999e-05
1.54787e-05
1.17753e-05
8.59082e-06
5.98247e-06
3.95707e-06
2.79649e-06
1.52199e-06
7.70531e-07
3.87943e-07
1.83302e-07
5.77656e-08
1.60018e-08
2.78514e-09
1.74758e-10
2.71055e-12
4.25728e-05
4.94911e-05
5.30262e-05
5.55629e-05
5.75644e-05
5.92129e-05
6.05951e-05
6.17555e-05
6.27076e-05
6.34815e-05
6.41512e-05
6.47392e-05
6.52446e-05
6.56601e-05
6.59752e-05
6.61762e-05
6.62467e-05
6.61676e-05
6.59164e-05
6.54676e-05
6.47922e-05
6.38583e-05
6.26316e-05
6.10765e-05
5.91583e-05
5.68452e-05
5.41126e-05
5.09474e-05
4.73534e-05
4.33572e-05
3.90131e-05
3.44069e-05
2.96549e-05
2.48995e-05
2.02979e-05
1.60062e-05
1.21613e-05
8.86412e-06
6.16938e-06
4.0803e-06
2.88178e-06
1.57887e-06
8.01188e-07
4.04528e-07
1.92612e-07
6.2238e-08
1.77553e-08
3.18086e-09
2.07526e-10
3.00675e-12
4.37189e-05
5.09955e-05
5.47188e-05
5.73839e-05
5.94786e-05
6.11955e-05
6.26273e-05
6.38235e-05
6.4808e-05
6.55985e-05
6.62632e-05
6.68423e-05
6.7337e-05
6.77407e-05
6.80425e-05
6.82286e-05
6.82821e-05
6.81829e-05
6.79078e-05
6.74298e-05
6.67187e-05
6.57412e-05
6.44613e-05
6.28422e-05
6.08477e-05
5.84452e-05
5.56095e-05
5.23278e-05
4.86052e-05
4.44706e-05
3.99819e-05
3.52292e-05
3.03342e-05
2.54444e-05
2.07218e-05
1.63259e-05
1.23952e-05
9.03072e-06
6.28565e-06
4.16138e-06
2.93501e-06
1.62667e-06
8.30427e-07
4.20567e-07
2.0098e-07
6.46818e-08
1.94812e-08
3.94548e-09
5.41189e-10
1.47405e-11
4.4151e-05
5.1563e-05
5.53556e-05
5.80655e-05
6.0191e-05
6.19289e-05
6.33744e-05
6.45788e-05
6.55693e-05
6.63637e-05
6.70235e-05
6.75962e-05
6.80849e-05
6.84823e-05
6.87778e-05
6.89572e-05
6.90035e-05
6.88963e-05
6.86117e-05
6.81226e-05
6.73981e-05
6.64042e-05
6.51046e-05
6.34617e-05
6.14388e-05
5.90032e-05
5.61295e-05
5.2805e-05
4.90355e-05
4.48506e-05
4.03098e-05
3.55048e-05
3.05593e-05
2.56227e-05
2.08585e-05
1.64273e-05
1.24683e-05
9.0823e-06
6.32193e-06
4.18713e-06
2.94653e-06
1.65178e-06
8.46257e-07
4.2968e-07
2.05859e-07
6.69686e-08
2.07341e-08
4.66039e-09
7.98008e-10
4.83873e-11
4.38625e-05
5.11754e-05
5.49103e-05
5.7576e-05
5.96655e-05
6.13738e-05
6.27952e-05
6.39794e-05
6.495e-05
6.57269e-05
6.63817e-05
6.69532e-05
6.74413e-05
6.78391e-05
6.81359e-05
6.83177e-05
6.83675e-05
6.8265e-05
6.79868e-05
6.75057e-05
6.67913e-05
6.58099e-05
6.45255e-05
6.2901e-05
6.09001e-05
5.84901e-05
5.56462e-05
5.23556e-05
4.86238e-05
4.44801e-05
3.99827e-05
3.52224e-05
3.03213e-05
2.54274e-05
2.07025e-05
1.63063e-05
1.2377e-05
9.01565e-06
6.27498e-06
4.15499e-06
2.90671e-06
1.64157e-06
8.40184e-07
4.258e-07
2.03781e-07
6.55306e-08
1.98748e-08
4.21138e-09
5.64927e-10
1.5631e-11
4.28594e-05
4.98445e-05
5.33979e-05
5.59326e-05
5.79217e-05
5.95519e-05
6.09124e-05
6.20481e-05
6.29729e-05
6.37216e-05
6.43726e-05
6.49454e-05
6.54373e-05
6.58412e-05
6.61462e-05
6.63387e-05
6.6402e-05
6.63164e-05
6.60592e-05
6.56044e-05
6.49225e-05
6.39811e-05
6.27455e-05
6.118e-05
5.92495e-05
5.69223e-05
5.41739e-05
5.09917e-05
4.73801e-05
4.33666e-05
3.90063e-05
3.43859e-05
2.96228e-05
2.486e-05
2.02548e-05
1.59633e-05
1.2122e-05
8.83128e-06
6.14493e-06
4.06557e-06
2.82962e-06
1.60046e-06
8.14645e-07
4.11061e-07
1.95617e-07
6.17462e-08
1.78787e-08
3.39222e-09
3.46037e-10
2.62345e-12
4.11623e-05
4.76151e-05
5.08798e-05
5.32093e-05
5.50437e-05
5.65551e-05
5.7824e-05
5.88853e-05
5.97418e-05
6.04658e-05
6.11138e-05
6.16891e-05
6.21876e-05
6.26015e-05
6.29198e-05
6.31291e-05
6.32135e-05
6.31544e-05
6.29304e-05
6.25171e-05
6.1887e-05
6.10095e-05
5.98524e-05
5.83818e-05
5.65647e-05
5.43711e-05
5.17774e-05
4.8771e-05
4.53547e-05
4.15529e-05
3.7416e-05
3.30239e-05
2.84863e-05
2.39379e-05
1.95288e-05
1.54092e-05
1.17123e-05
8.53754e-06
5.94042e-06
3.92636e-06
2.72371e-06
1.54213e-06
7.82251e-07
3.92925e-07
1.85348e-07
5.71948e-08
1.61637e-08
2.88085e-09
2.66421e-10
2.02344e-12
3.87746e-05
4.4519e-05
4.7407e-05
4.94726e-05
5.11101e-05
5.24715e-05
5.36249e-05
5.45848e-05
5.53729e-05
5.60792e-05
5.6722e-05
5.72993e-05
5.78051e-05
5.82306e-05
5.85647e-05
5.87944e-05
5.8905e-05
5.88792e-05
5.86977e-05
5.8338e-05
5.77753e-05
5.69818e-05
5.5928e-05
5.45833e-05
5.29171e-05
5.09018e-05
4.85151e-05
4.57443e-05
4.25908e-05
3.90747e-05
3.52401e-05
3.11583e-05
2.69283e-05
2.26736e-05
1.8534e-05
1.46514e-05
1.11542e-05
8.14098e-06
5.66884e-06
3.74973e-06
2.59035e-06
1.47965e-06
7.49988e-07
3.75958e-07
1.75701e-07
5.27746e-08
1.48924e-08
2.56168e-09
2.0539e-10
1.15763e-12
3.57504e-05
4.06558e-05
4.31075e-05
4.48713e-05
4.6286e-05
4.74788e-05
4.85e-05
4.93425e-05
5.00821e-05
5.07698e-05
5.14047e-05
5.19816e-05
5.24925e-05
5.29279e-05
5.32768e-05
5.35271e-05
5.36652e-05
5.36758e-05
5.35416e-05
5.32432e-05
5.27585e-05
5.20632e-05
5.11313e-05
4.99355e-05
4.84489e-05
4.66464e-05
4.45076e-05
4.202e-05
3.91833e-05
3.60132e-05
3.25465e-05
2.88439e-05
2.4992e-05
2.11004e-05
1.72957e-05
1.3709e-05
1.04621e-05
7.65136e-06
5.33592e-06
3.52715e-06
2.4444e-06
1.40404e-06
7.12588e-07
3.58487e-07
1.66592e-07
4.87629e-08
1.36664e-08
2.11992e-09
1.66525e-10
1.76472e-12
3.21706e-05
3.61675e-05
3.81579e-05
3.96073e-05
4.07917e-05
4.18105e-05
4.26828e-05
4.34298e-05
4.41327e-05
4.47979e-05
4.542e-05
4.5991e-05
4.65015e-05
4.69416e-05
4.73006e-05
4.75675e-05
4.77304e-05
4.77761e-05
4.76899e-05
4.74552e-05
4.70534e-05
4.64639e-05
4.56645e-05
4.46319e-05
4.33428e-05
4.17755e-05
3.99117e-05
3.77397e-05
3.52574e-05
3.24763e-05
2.94252e-05
2.61541e-05
2.27351e-05
1.92625e-05
1.58468e-05
1.26063e-05
9.65376e-06
7.08228e-06
4.95314e-06
3.28996e-06
2.24807e-06
1.30445e-06
6.6215e-07
3.32197e-07
1.54567e-07
4.48963e-08
1.26954e-08
2.1628e-09
1.41024e-10
2.10795e-12
2.81583e-05
3.12456e-05
3.27869e-05
3.39341e-05
3.48983e-05
3.57487e-05
3.6479e-05
3.71615e-05
3.78244e-05
3.84612e-05
3.90629e-05
3.96193e-05
4.01203e-05
4.0556e-05
4.09168e-05
4.11928e-05
4.1374e-05
4.14495e-05
4.14073e-05
4.12338e-05
4.09141e-05
4.04311e-05
3.97668e-05
3.89019e-05
3.78172e-05
3.64942e-05
3.49173e-05
3.3076e-05
3.09668e-05
2.85974e-05
2.59893e-05
2.31811e-05
2.02307e-05
1.72153e-05
1.42283e-05
1.13725e-05
8.74913e-06
6.44497e-06
4.52152e-06
3.00192e-06
2.05981e-06
1.18389e-06
5.93104e-07
2.95771e-07
1.3942e-07
4.13312e-08
1.05213e-08
1.95259e-09
1.24534e-10
7.43175e-13
2.38797e-05
2.61255e-05
2.72628e-05
2.81408e-05
2.89087e-05
2.95971e-05
3.02268e-05
3.08531e-05
3.14715e-05
3.20716e-05
3.26422e-05
3.31724e-05
3.3652e-05
3.40716e-05
3.44229e-05
3.46977e-05
3.48877e-05
3.49845e-05
3.49787e-05
3.48598e-05
3.46161e-05
3.42342e-05
3.37e-05
3.29982e-05
3.21134e-05
3.10309e-05
2.97377e-05
2.82246e-05
2.64878e-05
2.45315e-05
2.23709e-05
2.00344e-05
1.75658e-05
1.50256e-05
1.24891e-05
1.00424e-05
7.77367e-06
5.76227e-06
4.06735e-06
2.72317e-06
1.85773e-06
1.07434e-06
5.29888e-07
2.58538e-07
1.22453e-07
4.62766e-08
1.17808e-08
2.01106e-09
1.32104e-10
8.86155e-13
1.95389e-05
2.10679e-05
2.18701e-05
2.25253e-05
2.31278e-05
2.36828e-05
2.42399e-05
2.48072e-05
2.53735e-05
2.59263e-05
2.64534e-05
2.69441e-05
2.73888e-05
2.77794e-05
2.81088e-05
2.83706e-05
2.85586e-05
2.86664e-05
2.86872e-05
2.86131e-05
2.84354e-05
2.81443e-05
2.7729e-05
2.71779e-05
2.64793e-05
2.56218e-05
2.45952e-05
2.33919e-05
2.20083e-05
2.04462e-05
1.87156e-05
1.68361e-05
1.48392e-05
1.27698e-05
1.06855e-05
8.65475e-06
6.75107e-06
5.04471e-06
3.59257e-06
2.42409e-06
1.7096e-06
9.97338e-07
4.90802e-07
2.3531e-07
1.08921e-07
4.21624e-08
1.14107e-08
1.81083e-09
1.06647e-10
5.63505e-13
1.53581e-05
1.63284e-05
1.68741e-05
1.73569e-05
1.7823e-05
1.8286e-05
1.87747e-05
1.92786e-05
1.9784e-05
2.02782e-05
2.07493e-05
2.11876e-05
2.15847e-05
2.1934e-05
2.223e-05
2.24678e-05
2.26432e-05
2.27517e-05
2.27884e-05
2.27481e-05
2.26245e-05
2.24106e-05
2.20986e-05
2.16802e-05
2.11468e-05
2.049e-05
1.97023e-05
1.87776e-05
1.77129e-05
1.65089e-05
1.51714e-05
1.37134e-05
1.21563e-05
1.05313e-05
8.88009e-06
7.25394e-06
5.71114e-06
4.31168e-06
3.10833e-06
2.13917e-06
1.48995e-06
9.2762e-07
4.68201e-07
2.22674e-07
9.96405e-08
3.77401e-08
1.03563e-08
1.64544e-09
1.01207e-10
5.50181e-13
1.15469e-05
1.21214e-05
1.24855e-05
1.28405e-05
1.32034e-05
1.35954e-05
1.40155e-05
1.44505e-05
1.4887e-05
1.53128e-05
1.57177e-05
1.60932e-05
1.64329e-05
1.67315e-05
1.69851e-05
1.71904e-05
1.73446e-05
1.74449e-05
1.74881e-05
1.74708e-05
1.73887e-05
1.72373e-05
1.7011e-05
1.67042e-05
1.63108e-05
1.5825e-05
1.52415e-05
1.45559e-05
1.37659e-05
1.28714e-05
1.1876e-05
1.07878e-05
9.62045e-06
8.39446e-06
7.13795e-06
5.88677e-06
4.68338e-06
3.57389e-06
2.60369e-06
1.80689e-06
1.16977e-06
6.78713e-07
3.48193e-07
1.60809e-07
6.75308e-08
2.25522e-08
5.31168e-09
7.63814e-10
3.20783e-11
1.90018e-13
8.26928e-06
8.58986e-06
8.83348e-06
9.09734e-06
9.38527e-06
9.71027e-06
1.00605e-05
1.04226e-05
1.07846e-05
1.11361e-05
1.14687e-05
1.17759e-05
1.20528e-05
1.22957e-05
1.25021e-05
1.26699e-05
1.27976e-05
1.28834e-05
1.29256e-05
1.29221e-05
1.28702e-05
1.27668e-05
1.26085e-05
1.23915e-05
1.21117e-05
1.17653e-05
1.13487e-05
1.0859e-05
1.02946e-05
9.65539e-06
8.94337e-06
8.16348e-06
7.32414e-06
6.43813e-06
5.52323e-06
4.60275e-06
3.70512e-06
2.86217e-06
2.10716e-06
1.47054e-06
9.60729e-07
5.64482e-07
2.9752e-07
1.40564e-07
5.69294e-08
1.86618e-08
4.446e-09
5.95269e-10
2.92667e-11
1.69842e-13
5.61634e-06
5.78916e-06
5.95528e-06
6.15072e-06
6.38128e-06
6.64296e-06
6.92369e-06
7.21217e-06
7.49859e-06
7.77485e-06
8.03463e-06
8.27321e-06
8.48724e-06
8.67446e-06
8.83335e-06
8.96287e-06
9.0622e-06
9.13055e-06
9.16698e-06
9.17028e-06
9.1389e-06
9.07096e-06
8.9643e-06
8.8165e-06
8.62505e-06
8.38745e-06
8.10147e-06
7.76534e-06
7.378e-06
6.93943e-06
6.45092e-06
5.91546e-06
5.33811e-06
4.72647e-06
4.09119e-06
3.44644e-06
2.80994e-06
2.2021e-06
1.64447e-06
1.16035e-06
7.6423e-07
4.58369e-07
2.46495e-07
1.17265e-07
4.75702e-08
1.54836e-08
3.65253e-09
5.00448e-10
2.48708e-11
1.44837e-13
3.59978e-06
3.69373e-06
3.8099e-06
3.95605e-06
4.13477e-06
4.33636e-06
4.55076e-06
4.76906e-06
4.98386e-06
5.18931e-06
5.38104e-06
5.55597e-06
5.71207e-06
5.84808e-06
5.96326e-06
6.05722e-06
6.12967e-06
6.18032e-06
6.20874e-06
6.21431e-06
6.19619e-06
6.15327e-06
6.08427e-06
5.98772e-06
5.8621e-06
5.70592e-06
5.51783e-06
5.2968e-06
5.04228e-06
4.75433e-06
4.43383e-06
4.08263e-06
3.70378e-06
3.3017e-06
2.88249e-06
2.45416e-06
2.027e-06
1.61319e-06
1.22588e-06
8.79953e-07
5.89056e-07
3.60601e-07
1.97911e-07
9.5382e-08
3.89791e-08
1.27302e-08
3.00011e-09
4.12733e-10
2.05863e-11
1.19995e-13
2.16372e-06
2.21768e-06
2.29969e-06
2.40765e-06
2.53974e-06
2.68698e-06
2.84165e-06
2.99732e-06
3.14884e-06
3.29236e-06
3.42517e-06
3.54546e-06
3.65218e-06
3.74476e-06
3.82296e-06
3.88673e-06
3.93605e-06
3.9709e-06
3.99114e-06
3.99648e-06
3.98647e-06
3.96051e-06
3.91786e-06
3.85769e-06
3.7791e-06
3.68123e-06
3.56334e-06
3.42485e-06
3.26552e-06
3.08546e-06
2.88528e-06
2.66617e-06
2.42996e-06
2.17925e-06
1.91744e-06
1.64887e-06
1.37903e-06
1.11462e-06
8.63027e-07
6.3278e-07
4.33219e-07
2.71799e-07
1.52831e-07
7.50783e-08
3.10846e-08
1.02344e-08
2.41944e-09
3.33513e-10
1.66523e-11
9.70752e-14
1.20881e-06
1.24212e-06
1.29848e-06
1.37574e-06
1.4679e-06
1.56879e-06
1.67314e-06
1.77671e-06
1.87629e-06
1.96961e-06
2.05517e-06
2.13209e-06
2.19993e-06
2.25851e-06
2.30786e-06
2.34806e-06
2.37921e-06
2.40138e-06
2.41455e-06
2.41861e-06
2.41333e-06
2.39841e-06
2.37343e-06
2.33794e-06
2.29144e-06
2.23347e-06
2.16361e-06
2.08159e-06
1.9873e-06
1.88087e-06
1.76271e-06
1.63355e-06
1.49452e-06
1.34709e-06
1.19319e-06
1.03514e-06
8.75699e-07
7.18271e-07
5.66644e-07
4.25151e-07
2.98966e-07
1.93247e-07
1.12029e-07
5.65334e-08
2.38845e-08
7.96766e-09
1.8962e-09
2.62153e-10
1.31015e-11
7.63742e-14
6.19623e-07
6.41393e-07
6.79197e-07
7.30401e-07
7.90027e-07
8.53968e-07
9.18918e-07
9.82374e-07
1.04256e-06
1.09833e-06
1.14899e-06
1.19421e-06
1.23385e-06
1.26795e-06
1.29659e-06
1.31989e-06
1.33797e-06
1.3509e-06
1.3587e-06
1.36133e-06
1.3587e-06
1.35064e-06
1.33694e-06
1.31737e-06
1.29166e-06
1.25958e-06
1.22091e-06
1.17552e-06
1.12339e-06
1.06459e-06
9.99403e-07
9.28254e-07
8.51779e-07
7.7082e-07
6.8642e-07
5.99811e-07
5.12387e-07
4.25768e-07
3.4175e-07
2.62308e-07
1.89816e-07
1.26979e-07
7.64566e-08
4.00332e-08
1.74393e-08
5.94213e-09
1.4308e-09
1.98825e-10
9.95211e-12
5.80171e-14
2.85704e-07
2.9994e-07
3.23776e-07
3.54863e-07
3.90013e-07
4.26804e-07
4.63415e-07
4.98569e-07
5.31442e-07
5.61556e-07
5.88673e-07
6.12709e-07
6.3368e-07
6.51652e-07
6.66715e-07
6.7896e-07
6.88464e-07
6.95282e-07
6.99439e-07
7.00924e-07
6.99693e-07
6.95671e-07
6.88758e-07
6.78837e-07
6.65783e-07
6.49477e-07
6.2982e-07
6.06752e-07
5.80266e-07
5.50422e-07
5.17364e-07
4.81327e-07
4.42648e-07
4.01765e-07
3.59216e-07
3.15627e-07
2.71686e-07
2.28149e-07
1.85826e-07
1.45556e-07
1.08282e-07
7.51031e-08
4.72664e-08
2.59785e-08
1.18426e-08
4.17786e-09
1.02701e-09
1.44041e-10
7.23012e-12
4.21573e-14
1.1499e-07
1.23719e-07
1.37429e-07
1.54276e-07
1.72652e-07
1.91354e-07
2.09543e-07
2.26694e-07
2.42509e-07
2.56844e-07
2.69652e-07
2.80942e-07
2.90753e-07
2.99139e-07
3.06155e-07
3.11855e-07
3.16281e-07
3.19464e-07
3.21417e-07
3.22141e-07
3.21616e-07
3.19811e-07
3.16681e-07
3.12175e-07
3.06236e-07
2.98814e-07
2.89865e-07
2.79363e-07
2.67309e-07
2.53734e-07
2.38706e-07
2.22338e-07
2.04789e-07
1.86263e-07
1.6701e-07
1.47319e-07
1.27507e-07
1.07911e-07
8.88797e-08
7.07599e-08
5.38999e-08
3.86706e-08
2.54922e-08
1.48533e-08
7.21758e-09
2.6947e-09
6.88045e-10
9.8243e-11
4.95766e-12
2.89221e-14
3.86194e-08
4.34525e-08
5.01863e-08
5.79803e-08
6.6146e-08
7.4201e-08
8.185e-08
8.89355e-08
9.5387e-08
1.01184e-07
1.06332e-07
1.10852e-07
1.14769e-07
1.18111e-07
1.20904e-07
1.23172e-07
1.24934e-07
1.26203e-07
1.26986e-07
1.27283e-07
1.27087e-07
1.26385e-07
1.25162e-07
1.23397e-07
1.21068e-07
1.18156e-07
1.14644e-07
1.10523e-07
1.05793e-07
1.00467e-07
9.45742e-08
8.81591e-08
8.12855e-08
7.40351e-08
6.65074e-08
5.8818e-08
5.10933e-08
4.3467e-08
3.6076e-08
2.90533e-08
2.25245e-08
1.6607e-08
1.14138e-08
7.06818e-09
3.72147e-09
1.51627e-09
4.15487e-10
6.16099e-11
3.14493e-12
1.83689e-14
1.00755e-08
1.22668e-08
1.49133e-08
1.77909e-08
2.06743e-08
2.34268e-08
2.59815e-08
2.83123e-08
3.0414e-08
3.22908e-08
3.39511e-08
3.5405e-08
3.6663e-08
3.77353e-08
3.86312e-08
3.93586e-08
3.9924e-08
4.03316e-08
4.05838e-08
4.06808e-08
4.06204e-08
4.03989e-08
4.0011e-08
3.94503e-08
3.871e-08
3.77838e-08
3.66666e-08
3.53555e-08
3.38508e-08
3.21568e-08
3.02827e-08
2.82432e-08
2.60585e-08
2.37552e-08
2.13651e-08
1.89252e-08
1.64764e-08
1.40619e-08
1.17256e-08
9.51062e-09
7.45701e-09
5.60012e-09
3.96935e-09
2.58843e-09
1.48053e-09
6.7769e-10
2.10365e-10
3.39608e-11
1.78517e-12
1.04599e-14
1.82353e-09
2.52098e-09
3.26307e-09
4.01721e-09
4.73814e-09
5.40561e-09
6.01386e-09
6.56304e-09
7.05529e-09
7.49336e-09
7.88012e-09
8.2184e-09
8.51089e-09
8.7601e-09
8.96827e-09
9.13731e-09
9.26872e-09
9.36355e-09
9.42234e-09
9.44515e-09
9.43148e-09
9.38046e-09
9.29087e-09
9.16122e-09
8.98996e-09
8.77562e-09
8.51703e-09
8.21353e-09
7.8652e-09
7.47306e-09
7.03927e-09
6.56722e-09
6.06168e-09
5.52879e-09
4.97597e-09
4.41181e-09
3.84584e-09
3.2881e-09
2.74888e-09
2.2383e-09
1.76579e-09
1.33971e-09
9.66841e-10
6.51894e-10
3.9739e-10
2.04525e-10
7.61332e-11
1.4801e-11
8.50343e-13
5.03972e-15
1.88119e-10
3.1073e-10
4.29056e-10
5.41112e-10
6.43775e-10
7.36769e-10
8.20627e-10
8.95959e-10
9.6331e-10
1.02317e-09
1.07597e-09
1.12213e-09
1.16204e-09
1.19603e-09
1.22442e-09
1.24748e-09
1.26541e-09
1.27835e-09
1.28639e-09
1.28952e-09
1.28768e-09
1.28075e-09
1.26855e-09
1.2509e-09
1.22757e-09
1.19837e-09
1.16312e-09
1.12175e-09
1.07427e-09
1.02081e-09
9.61674e-10
8.97326e-10
8.28417e-10
7.55786e-10
6.8045e-10
6.0358e-10
5.26477e-10
4.50516e-10
3.77102e-10
3.0762e-10
2.43367e-10
1.85496e-10
1.34955e-10
9.24176e-11
5.8222e-11
3.2318e-11
1.42994e-11
3.80091e-12
2.89323e-13