/*--------------------------------*- C++ -*----------------------------------*\
| =========                 |                                                 |
| \\      /  F ield         | foam-extend: Open Source CFD                    |
|  \\    /   O peration     | Version:     4.0                                |
|   \\  /    A nd           | Web:         http://www.foam-extend.org         |
|    \\/     M anipulation  |                                                 |
\*---------------------------------------------------------------------------*/
FoamFile
{
    version     2.0;
    format      ascii;
    class       volScalarField;
    location    "0.0009";
    object      omega;
}
// * * * * * * * * * * * * * * * * * * * * * * * * * * * * * * * * * * * * * //

dimensions      [0 0 -1 0 0 0 0];

internalField   nonuniform List<scalar> 
28770
(
1.87595e+07
1.87595e+07
1.87595e+07
1.87595e+07
1.87595e+07
1.87595e+07
1.87595e+07
1.87595e+07
1.87595e+07
1.87595e+07
1.87595e+07
1.87595e+07
1.87595e+07
1.87595e+07
1.87595e+07
1.87595e+07
1.87595e+07
1.87595e+07
1.87595e+07
1.87595e+07
1.87595e+07
1.87595e+07
1.87595e+07
1.87595e+07
1.87595e+07
1.87595e+07
1.87595e+07
1.87595e+07
1.87595e+07
1.87595e+07
1.87595e+07
1.87595e+07
1.87595e+07
1.87595e+07
1.87595e+07
1.87595e+07
1.87595e+07
1.87595e+07
1.87595e+07
1.87595e+07
1.87595e+07
1.87595e+07
1.87595e+07
1.87595e+07
1.87595e+07
1.87595e+07
1.87595e+07
1.87595e+07
1.87595e+07
1.87595e+07
2.70013e+06
3.18574e+06
3.23008e+06
3.23475e+06
3.23538e+06
3.23549e+06
3.23552e+06
3.23553e+06
3.23554e+06
3.23554e+06
3.23554e+06
3.23554e+06
3.23554e+06
3.23554e+06
3.23554e+06
3.23554e+06
3.23554e+06
3.23554e+06
3.23554e+06
3.23554e+06
3.23554e+06
3.23554e+06
3.23554e+06
3.23554e+06
3.23554e+06
3.23555e+06
3.23555e+06
3.23555e+06
3.23555e+06
3.23555e+06
3.23555e+06
3.23555e+06
3.23555e+06
3.23555e+06
3.23556e+06
3.23556e+06
3.23556e+06
3.23556e+06
3.23557e+06
3.23558e+06
3.23559e+06
3.23562e+06
3.23568e+06
3.23586e+06
3.23645e+06
3.23893e+06
3.25307e+06
3.36212e+06
4.43128e+06
1.79872e+07
679420
1.01713e+06
1.08474e+06
1.09848e+06
1.10156e+06
1.10235e+06
1.10259e+06
1.10267e+06
1.1027e+06
1.10272e+06
1.10272e+06
1.10273e+06
1.10273e+06
1.10273e+06
1.10273e+06
1.10273e+06
1.10273e+06
1.10273e+06
1.10273e+06
1.10273e+06
1.10273e+06
1.10273e+06
1.10273e+06
1.10273e+06
1.10273e+06
1.10273e+06
1.10273e+06
1.10274e+06
1.10274e+06
1.10274e+06
1.10274e+06
1.10274e+06
1.10274e+06
1.10275e+06
1.10275e+06
1.10276e+06
1.10277e+06
1.10278e+06
1.10281e+06
1.10287e+06
1.10298e+06
1.10322e+06
1.10379e+06
1.10531e+06
1.1099e+06
1.12603e+06
1.19192e+06
1.50335e+06
3.24976e+06
1.79872e+07
228616
431009
496276
516082
522233
524268
524999
525285
525408
525465
525493
525508
525516
525521
525524
525525
525527
525527
525528
525529
525529
525530
525530
525531
525532
525532
525534
525535
525537
525539
525543
525548
525555
525566
525582
525608
525650
525721
525845
526076
526527
527465
529566
534664
548179
587436
712735
1.16002e+06
3.12319e+06
1.79872e+07
96116.9
214078
266520
287533
295783
299088
300469
301077
301360
301500
301572
301612
301634
301648
301656
301661
301664
301667
301668
301670
301671
301672
301673
301674
301676
301678
301681
301684
301689
301696
301705
301719
301739
301769
301815
301887
302004
302198
302535
303140
304279
306533
311242
321670
346213
407822
574732
1.08478e+06
3.10622e+06
1.79872e+07
47920.5
118609
157767
176981
185986
190180
192166
193134
193623
193879
194019
194099
194145
194174
194191
194203
194210
194216
194219
194222
194225
194227
194229
194232
194235
194240
194245
194253
194264
194279
194300
194330
194374
194440
194541
194697
194945
195352
196037
197231
199387
203432
211342
227492
262029
340008
530310
1.06585e+06
3.1032e+06
1.79872e+07
27095.7
71383.8
99984.5
116289
125053
129659
132079
133367
134067
134457
134681
134813
134893
134943
134975
134996
135010
135020
135027
135032
135037
135041
135046
135051
135057
135065
135076
135090
135111
135139
135178
135235
135318
135441
135625
135907
136348
137053
138210
140158
143533
149561
160675
181887
224029
312397
514671
1.06036e+06
3.10248e+06
1.79872e+07
16787.6
45862.2
66792.7
80134
88117.9
92746.7
95399.6
96922.9
97806.7
98327.7
98640.7
98832.8
98953.1
99030.2
99080.6
99114.3
99137.4
99153.7
99165.7
99175.1
99182.9
99190.3
99197.9
99206.5
99217.1
99230.7
99248.8
99273.4
99307.2
99354.4
99420.9
99515.6
99652.3
99852.2
100149
100595
101281
102352
104061
106847
111493
119430
133355
158540
205918
300433
508666
1.05852e+06
3.10227e+06
1.79872e+07
11144.2
31125.1
46591.1
57333.2
64334.5
68732.9
71445.6
73108.7
74131.1
74764.9
75162.7
75416.1
75580.1
75688
75760.3
75809.6
75844
75868.7
75887
75901.5
75913.7
75925.1
75937
75950.5
75967
75988.2
76016.4
76054.4
76106.6
76179
76280.4
76423.7
76628.5
76924.3
77357.1
77998.7
78963.9
80438.9
82730.6
86354.9
92195.6
101804
117989
146070
196865
294919
506145
1.05782e+06
3.10219e+06
1.79872e+07
7806.22
22082.1
33701.1
42325
48340.7
52377.4
55025.6
56743.6
57855
58576
59047.1
59357.8
59565.2
59705.4
59801.5
59868.5
59916
59950.5
59976.6
59997.3
60015.1
60031.7
60049
60068.7
60092.8
60123.6
60164.4
60219.3
60294.2
60397.5
60541
60742.1
61026.6
61432.5
62017.9
62871.7
64132
66016.8
68875.1
73274.6
80157.8
91129.9
109025
139124
192087
292178
504966
1.05751e+06
3.10215e+06
1.79872e+07
5714.42
16262.5
25145.9
32108.1
37231.2
40859.2
43366.3
45074.1
46229.5
47010.3
47539.3
47899.9
48147.6
48319.3
48439.8
48525.3
48587.1
48632.7
48667.6
48695.7
48720
48742.9
48766.7
48793.9
48827
48869.4
48925.1
48999.7
49101.1
49239.9
49431.2
49697
50068.8
50593
51338.4
52408.3
53959.7
56234
59608.1
64679.9
72418.7
84442.8
103571
135021
189335
290614
504272
1.0573e+06
3.10213e+06
1.79872e+07
4347.12
12380.4
19320.3
24971.2
29319.9
32541.6
34868.5
36521.6
37684.9
38500.1
39071
39471.9
39754.8
39955.8
40099.7
40203.9
40280.5
40337.9
40382.4
40418.7
40450.2
40480.3
40511.7
40547.4
40590.9
40646.3
40718.8
40815.6
40946.2
41123.7
41366.5
41700.7
42163.3
42807.7
43711.7
44989.9
46812.6
49436.5
53254.1
58876.7
67278.5
80066.7
100029
132326
187425
289363
503534
1.05696e+06
3.10205e+06
1.79872e+07
3424.91
9714.46
15245.2
19874.4
23574.5
26420.5
28554.2
30126.1
31271.1
32099.7
32697.5
33129
33441
33667.6
33833.2
33955.3
34046.5
34115.9
34170.5
34215.4
34254.9
34292.7
34332.4
34377.6
34432.4
34501.9
34592.7
34713
34874.4
35092.3
35388.1
35791.4
36344
37105
38159.1
39628.3
41691.5
44613.2
48791.9
54839.7
63721.7
77014.6
97464.8
130176
185559
287639
501918
1.05568e+06
3.1015e+06
1.79872e+07
2788.6
7842.51
12338.3
16171.9
19337.7
21851.6
23796.2
25274.1
26383.4
27209.4
27821.5
28274.2
28609
28857.3
29042.1
29180.7
29285.8
29367
29431.6
29485.4
29533.2
29579.2
29627.6
29682.7
29749.5
29833.8
29943.4
30088
30280.7
30539.1
30887
31357.5
31995.8
32865.3
34055.3
35692.4
37959.1
41121.6
45576.3
51928.5
61129.2
74689.8
95302.7
127975
182983
284206
497131
1.04963e+06
3.09628e+06
1.79872e+07
2342.42
6506
10234.1
13459.6
16181.4
18406.1
20174.3
21554.9
22618.6
23430.8
24047.1
24513.1
24864.8
25130.6
25331.8
25485.1
25603
25695.4
25769.7
25832.3
25888.4
25942.7
26000
26065.3
26144.2
26243.6
26372
26540.6
26763.9
27061.5
27459.2
27992.5
28709.6
29676.6
30985.3
32764.4
35195.9
38542.2
43190.1
49730.9
59135.7
72742.1
93203.4
125319
178945
277028
482969
1.02053e+06
3.04091e+06
1.79872e+07
2026.23
5540.32
8694.29
11451
13809.6
15788.3
17398.5
18684.8
19698.8
20490
21103.2
21575.9
21939.4
22218.6
22433.4
22599.4
22728.8
22831.4
22914.9
22985.9
23050.1
23112.7
23178.8
23254.1
23345
23459
23605.7
23797.4
24049.8
24384
24827.7
25418.1
26205.2
27257
28666.3
30561.5
33121.8
36601.2
41365.5
47945.9
54579.6
67610.2
85825.9
113844
159356
239353
397246
770892
2.00892e+06
1.20425e+07
1800.79
4837.02
7559.86
9956.39
12023.5
13790.4
15262.7
16461.9
17425.7
18192.4
18797.3
19271.9
19642.8
19932.1
20157.7
20334.4
20473.7
20585.4
20677.4
20756.3
20828.1
20898.6
20973.2
21058.2
21160.5
21288.4
21452.4
21665.5
21944.8
22312.3
22797.3
23438
24285.8
25409.3
26901.5
28889.3
31548.4
35125.9
39977.6
46631.4
53301.8
66115.9
84020.6
111313
155281
232030
383257
747051
2.01433e+06
1.24057e+07
1639.65
4322.28
6720.18
8839.05
10679.7
12265.7
13617.5
14738.4
15654.5
16395.3
16989.2
17462.2
17837.2
18133.5
18367.5
18552.8
18700.7
18820.4
18919.8
19005.9
19084.8
19162.6
19245.2
19339.2
19452.1
19592.9
19772.6
20005.3
20308.6
20705.8
21226.7
21910.7
22809.6
23992.2
25551
27610.7
30343.3
33989.3
38894.1
45569.6
52252.6
64840.1
82439.6
109100
151859
226466
373642
730685
1.98889e+06
1.23852e+07
1524.56
3944.83
6097.82
8003.8
9668.91
11107.4
12351.2
13404.4
14277.1
14992.7
15574.2
16043.4
16419.9
16721
16961.3
17153.5
17308.4
17434.9
17540.9
17633.3
17718.6
17803
17892.8
17995
18117.6
18270
18463.8
18713.7
19038.1
19460.8
20012.3
20732.5
21673.5
22903.7
24514.4
26628.3
29413.3
33103.5
38034.8
44703.4
51375.4
63748.4
81060.9
107155
148719
233694
388327
766446
2.12099e+06
1.69429e+07
1442.71
3668.47
5637.33
7380.85
8909.59
10235.8
11385.3
12377.5
13212
13904.2
14473.3
14937.5
15313.9
15617.8
15862.8
16060.4
16220.9
16353.1
16464.6
16562.6
16653.5
16743.7
16839.9
16949.3
17080.4
17242.9
17449
17713.7
18056
18500.2
19077.1
19827
20801.6
22069
23719.2
25872.4
28692.7
32408.3
37345.9
43988.7
50631.9
62804.4
79853.6
105470
146177
229244
379608
745904
2.07427e+06
1.69163e+07
1384.99
3467.35
5298.79
6919.59
8344.02
9584.65
10659.1
11595
12396.8
13068.6
13626
14085
14460.3
14765.9
15014.1
15215.8
15380.8
15517.5
15633.7
15736.2
15831.8
15927.1
16028.7
16144.4
16282.7
16453.8
16670.2
16947.3
17304.4
17766.1
18363.6
19137
20137.9
21433.6
23112.7
25293.2
28135.3
31861.8
36791.1
43394.1
49994.4
61973.5
78770.5
103965
143977
225702
374059
737873
2.06702e+06
1.69157e+07
1344.9
3322.98
5053.46
6583.17
7929.34
9105.14
10125.4
11012.8
11784.4
12439.2
12986.7
13440.6
13814.5
14120.9
14371.3
14576.1
14744.5
14884.8
15004.6
15110.9
15210.4
15309.7
15415.9
15536.7
15680.9
15859.1
16083.8
16370.9
16739.9
17215.4
17829
18620.4
19641.1
20957.6
22657
24855.3
27709.1
31436.2
36346.9
42900.1
49447.6
61227.4
77755.5
102498
141756
221854
367381
723966
2.02467e+06
1.67947e+07
1317.86
3222.28
4880.79
6345.08
7634.55
8763.04
9744.52
10596.3
11340.6
11981.4
12520.8
12970.6
13343
13649.7
13901.6
14108.5
14279.4
14422.5
14545.1
14654.3
14756.7
14859.3
14969
15093.8
15242.6
15426.2
15657.4
15952.1
16330.1
16816.1
17441.6
18246.3
19281.2
20612.3
22325.4
24534.4
27393
31114.2
36000.8
42499.7
48992.4
60557.2
76781.5
100974
139212
216723
357045
696900
2.0757e+06
1.19264e+07
1300.68
3156.18
4766.54
6186.75
7437.81
8534.06
9489.12
10318.2
11040.8
11669.4
12203.4
12650.3
13021.5
13328.3
13581.1
13789.5
13962.1
14107
14231.6
14342.8
14447.4
14552.2
14664.5
14792.2
14944.3
15131.8
15367.6
15667.7
16051.9
16545.2
17178.9
17992.7
19037.2
20377.8
22099.3
24314.2
27173.6
30886.5
35749.3
42197.5
48646.9
59985.8
75887.1
99438
136333
209981
341565
659033
1.98848e+06
1.18236e+07
1291.21
3118.39
4700.64
6095.01
7323.43
8400.62
9340.08
10156.1
10865.8
11485.3
12015.9
12461
12831.5
13138.4
13391.7
13600.8
13774.5
13920.5
14046.3
14158.8
14264.7
14370.9
14484.7
14614.1
14768.3
14958.1
15196.7
15500
15888.1
16385.7
17024.3
17843.4
18893.4
20239.4
21965.6
24183.2
27041.9
30747.8
35592.7
42003.8
48436.3
59565.6
75185.8
98130.9
133608
202725
320707
584448
1.29205e+06
5.51632e+06
1288.63
3106.65
4679.62
6065.4
7286.27
8357.08
9291.36
10103.2
10808.5
11424.3
11953.6
12398.4
12768.7
13075.5
13329
13538.4
13712.4
13858.8
13985
14097.9
14204.2
14310.9
14425.2
14555.2
14710.1
14900.7
15140.2
15444.6
15833.9
16333
16973.2
17794
18845.9
20193.6
21921.2
24139.6
26997.9
30701
35539.2
41936.5
48392.8
59364.9
74837
97445.3
132074
198731
307305
524630
967061
1.96984e+06
1292.69
3120.22
4702.36
6096.47
7324.61
8401.54
9340.79
10156.7
10866.2
11485.6
12016.1
12461.2
12831.7
13138.6
13391.8
13601
13774.6
13920.7
14046.5
14158.9
14264.8
14371
14484.8
14614.2
14768.4
14958.2
15196.7
15500.1
15888.1
16385.7
17024.3
17843.3
18893.4
20239.3
21965.4
24183
27041.7
30747.6
35592.4
42003.4
48523.5
59432.3
74955.2
97680.5
132609
201219
315808
563458
1.23015e+06
4.58758e+06
1303.62
3159.8
4769.91
6189.61
7440.1
8535.83
9490.46
10319.2
11041.5
11670
12203.9
12650.7
13021.9
13328.7
13581.5
13789.8
13962.4
14107.3
14231.9
14343.1
14447.7
14552.5
14664.8
14792.4
14944.5
15132
15367.7
15667.8
16052
16545.2
17178.8
17992.5
19037
20377.5
22099
24313.9
27173.3
30886.1
35748.7
42196.7
48805.7
59751.5
75500.7
98729.5
134889
208097
336597
643919
1.63972e+06
1.17254e+07
1322.21
3227.59
4885.72
6349.21
7637.84
8765.56
9746.4
10597.7
11341.6
11982.2
12521.5
12971.2
13343.6
13650.3
13902.1
14109
14279.9
14422.9
14545.5
14654.7
14757.1
14859.6
14969.3
15094.1
15242.9
15426.5
15657.6
15952.3
16330.1
16816.1
17441.4
18246.1
19281
20611.9
22325
24533.9
27392.5
31113.6
36000.1
42498.7
49209.2
60253.8
76314.3
100189
137781
215142
353648
689234
1.74897e+06
1.19055e+07
1350.57
3329.87
5059.82
6588.47
7933.5
9108.28
10127.7
11014.4
11785.7
12440.3
12987.6
13441.4
13815.2
14121.5
14371.9
14576.6
14745
14885.3
15005.1
15111.4
15210.9
15310.2
15416.3
15537.1
15681.3
15859.4
16084.1
16371
16739.9
17215.4
17828.8
18620.1
19640.7
20957.1
22656.5
24854.7
27708.5
31435.5
36346
42899
49711.4
60879.5
77258.1
101736
140517
220674
365059
717625
1.98852e+06
1.62927e+07
1391.86
3475.68
5306.44
6925.89
8348.9
9588.25
10661.7
11596.8
12398.3
13069.8
13627.1
14085.9
14461.1
14766.6
15014.8
15216.4
15381.4
15518.1
15634.3
15736.8
15832.4
15927.6
16029.2
16144.9
16283.1
16454.1
16670.4
16947.4
17304.5
17766
18363.4
19136.6
20137.4
21433.1
23112.1
25292.5
28134.5
31861
36790.2
43392.9
50302.5
61588.5
78253.1
103227
142878
224787
372588
735419
2.06245e+06
1.69138e+07
1450.65
3678.06
5646.05
7387.94
8914.97
10239.6
11388
12379.6
13213.6
13905.6
14474.4
14938.5
15314.8
15618.6
15863.5
16061.1
16221.6
16353.7
16465.3
16563.2
16654
16744.2
16840.4
16949.8
17080.8
17243.2
17449.2
17713.8
18056
18500
19076.8
19826.5
20801
22068.4
23718.5
25871.6
28691.9
32407.4
37345
43987.7
50990.1
62374.8
79296.9
104698
145046
228302
378067
743558
2.07216e+06
1.69162e+07
1533.4
3955.43
6107.34
8011.4
9674.52
11111.3
12354
13406.5
14278.9
14994.1
15575.4
16044.5
16420.9
16721.8
16962.1
17154.3
17309.1
17435.5
17541.5
17633.9
17719.2
17803.5
17893.3
17995.5
18118
18270.3
18464
18713.8
19038.1
19460.6
20012
20732
21672.8
22903
24513.6
26627.5
29412.4
33102.7
38033.9
44702.6
51796.4
63258.6
80435.9
106278
147379
232444
385647
758812
2.09677e+06
1.69198e+07
1649.17
4333.58
6730.17
8846.83
10685.2
12269.5
13620.3
14740.5
15656.2
16396.7
16990.4
17463.2
17838.1
18134.3
18368.3
18553.5
18701.3
18821
18920.4
19006.5
19085.4
19163.1
19245.7
19339.6
19452.5
19593.2
19772.8
20005.3
20308.6
20705.6
21226.3
21910.1
22808.9
23991.4
25550.1
27609.8
30342.4
33988.4
38893.3
45569
52753.9
64272.5
81725.4
108094
150269
223942
368286
716127
1.93333e+06
1.21638e+07
1810.75
4848.67
7569.92
9963.98
12028.7
13794
15265.4
16463.9
17427.3
18193.7
18798.4
19272.9
19643.7
19932.8
20158.4
20335
20474.4
20586
20677.9
20756.8
20828.7
20899
20973.7
21058.6
21160.8
21288.7
21452.5
21665.5
21944.7
22312.1
22796.9
23437.4
24285.1
25408.5
26900.6
28888.3
31547.4
35125.1
39976.9
46630.8
53908.1
65451.9
83202.1
110168
153509
229128
378427
739972
2.00776e+06
1.24058e+07
2036.33
5551.9
8704.01
11458
13814.2
15791.6
17400.9
18686.6
19700.2
20491.2
21104.1
21576.7
21940.1
22219.3
22434
22600
22729.4
22831.9
22915.4
22986.4
23050.5
23113.1
23179.2
23254.5
23345.3
23459.2
23605.8
23797.4
24049.7
24383.8
24827.3
25417.6
26204.5
27256.2
28665.4
30560.6
33120.9
36600.4
41364.9
47945.4
55346.3
66834.1
84895.3
112539
157223
235381
389159
755751
2.01698e+06
1.23779e+07
2352.36
6517.09
10243
13465.7
16185.4
18409
20176.4
21556.4
22619.8
23431.7
24047.9
24513.7
24865.4
25131.1
25332.3
25485.6
25603.5
25695.8
25770.1
25832.6
25888.7
25943
26000.3
26065.6
26144.4
26243.7
26372.1
26540.6
26763.8
27061.2
27458.8
27992
28708.9
29675.8
30984.5
32763.5
35195
38541.5
43189.5
49730.5
59135.4
72741.9
93203.3
125319
178945
277028
482969
1.02053e+06
3.04091e+06
1.79872e+07
2798.06
7852.69
12346.1
16177
19341.1
21853.9
23797.8
25275.2
26384.3
27210
27822
28274.6
28609.4
28857.7
29042.5
29181
29286.1
29367.3
29431.9
29485.6
29533.4
29579.4
29627.8
29682.9
29749.6
29833.9
29943.4
30087.9
30280.5
30538.8
30886.7
31357
31995.2
32864.7
34054.6
35691.7
37958.4
41120.9
45575.7
51928.1
61128.9
74689.6
95302.7
127975
182983
284206
497131
1.04963e+06
3.09628e+06
1.79872e+07
3433.6
9723.38
15251.6
19878.3
23577.1
26422.2
28555.3
30126.9
31271.7
32100.1
32697.8
33129.2
33441.2
33667.8
33833.4
33955.5
34046.7
34116.1
34170.6
34215.5
34255.1
34292.9
34332.5
34377.7
34432.5
34502
34592.7
34713
34874.3
35092.1
35387.8
35791
36343.6
37104.5
38158.5
39627.7
41690.9
44612.6
48791.4
54839.3
63721.4
77014.5
97464.8
130176
185559
287639
501918
1.05568e+06
3.1015e+06
1.79872e+07
4354.77
12387.8
19325.2
24974.1
29321.8
32542.7
34869.1
36522
37685.2
38500.2
39071.1
39472
39754.9
39955.8
40099.8
40204
40280.5
40338
40382.5
40418.7
40450.3
40480.3
40511.7
40547.4
40590.9
40646.3
40718.8
40815.6
40946.1
41123.5
41366.3
41700.4
42162.9
42807.3
43711.3
44989.4
46812.1
49436
53253.7
58876.4
67278.2
80066.6
100029
132326
187426
289363
503534
1.05696e+06
3.10205e+06
1.79872e+07
5720.84
16268.1
25149.2
32110
37232.2
40859.7
43366.6
45074.2
46229.5
47010.2
47539.2
47899.8
48147.5
48319.3
48439.7
48525.3
48587
48632.7
48667.6
48695.7
48719.9
48742.8
48766.7
48793.9
48827
48869.3
48925
48999.7
49101
49239.8
49431.1
49696.8
50068.6
50592.7
51338.1
52408
53959.3
56233.6
59607.7
64679.6
72418.4
84442.6
103571
135021
189335
290614
504272
1.0573e+06
3.10213e+06
1.79872e+07
7811.24
22085.9
33702.9
42325.9
48341
52377.5
55025.5
56743.4
57854.8
58575.8
59046.9
59357.6
59565.1
59705.3
59801.4
59868.4
59915.9
59950.4
59976.5
59997.3
60015
60031.6
60049
60068.7
60092.7
60123.6
60164.3
60219.2
60294.2
60397.4
60540.9
60742.1
61026.5
61432.4
62017.8
62871.5
64131.8
66016.6
68874.8
73274.3
80157.6
91129.8
109025
139124
192087
292179
504966
1.05751e+06
3.10215e+06
1.79872e+07
11147.7
31126.8
46591.6
57333.3
64334.3
68732.7
71445.3
73108.4
74130.8
74764.6
75162.4
75415.8
75579.9
75687.8
75760.1
75809.5
75843.9
75868.6
75886.9
75901.3
75913.6
75925
75936.9
75950.4
75966.9
75988.2
76016.3
76054.4
76106.6
76179
76280.4
76423.7
76628.5
76924.3
77357.1
77998.7
78963.9
80438.8
82730.5
86354.7
92195.4
101804
117989
146070
196865
294919
506145
1.05782e+06
3.10219e+06
1.79872e+07
16789.4
45861.2
66791.7
80133.3
88117.4
92746.2
95399.2
96922.5
97806.3
98327.4
98640.4
98832.5
98952.9
99030
99080.4
99114.1
99137.2
99153.6
99165.6
99174.9
99182.8
99190.2
99197.8
99206.4
99217
99230.7
99248.8
99273.4
99307.3
99354.4
99420.9
99515.7
99652.4
99852.3
100149
100596
101281
102352
104061
106847
111493
119430
133355
158540
205918
300433
508666
1.05852e+06
3.10227e+06
1.79872e+07
27095.6
71377.4
99982.1
116287
125052
129659
132079
133367
134067
134457
134681
134813
134893
134943
134975
134996
135010
135020
135027
135032
135037
135041
135046
135051
135057
135065
135076
135090
135111
135139
135178
135235
135318
135441
135625
135907
136348
137053
138210
140158
143533
149561
160675
181887
224029
312397
514671
1.06036e+06
3.10248e+06
1.79872e+07
47920.5
118606
157765
176980
185985
190180
192166
193133
193622
193879
194019
194099
194145
194174
194191
194203
194210
194215
194219
194222
194225
194227
194229
194232
194235
194240
194245
194253
194264
194279
194300
194330
194374
194440
194541
194697
194946
195352
196037
197231
199387
203432
211342
227492
262029
340008
530310
1.06585e+06
3.1032e+06
1.79872e+07
96117
214077
266519
287533
295782
299088
300469
301077
301360
301500
301572
301612
301634
301647
301656
301661
301664
301667
301668
301670
301671
301672
301673
301674
301676
301678
301681
301684
301689
301696
301705
301719
301739
301769
301815
301887
302004
302198
302535
303140
304279
306533
311242
321670
346213
407822
574732
1.08478e+06
3.10622e+06
1.79872e+07
228616
431009
496276
516082
522233
524268
524999
525285
525408
525465
525493
525508
525516
525521
525523
525525
525527
525527
525528
525529
525529
525530
525530
525531
525532
525532
525534
525535
525537
525540
525543
525548
525555
525566
525582
525608
525650
525721
525845
526076
526527
527465
529566
534664
548179
587436
712735
1.16002e+06
3.12319e+06
1.79872e+07
679420
1.01713e+06
1.08474e+06
1.09848e+06
1.10156e+06
1.10235e+06
1.10259e+06
1.10267e+06
1.1027e+06
1.10272e+06
1.10272e+06
1.10273e+06
1.10273e+06
1.10273e+06
1.10273e+06
1.10273e+06
1.10273e+06
1.10273e+06
1.10273e+06
1.10273e+06
1.10273e+06
1.10273e+06
1.10273e+06
1.10273e+06
1.10273e+06
1.10273e+06
1.10273e+06
1.10274e+06
1.10274e+06
1.10274e+06
1.10274e+06
1.10274e+06
1.10274e+06
1.10275e+06
1.10275e+06
1.10276e+06
1.10277e+06
1.10278e+06
1.10281e+06
1.10287e+06
1.10298e+06
1.10322e+06
1.10379e+06
1.10531e+06
1.1099e+06
1.12603e+06
1.19192e+06
1.50335e+06
3.24976e+06
1.79872e+07
2.70013e+06
3.18574e+06
3.23008e+06
3.23475e+06
3.23538e+06
3.23549e+06
3.23552e+06
3.23553e+06
3.23554e+06
3.23554e+06
3.23554e+06
3.23554e+06
3.23554e+06
3.23554e+06
3.23554e+06
3.23554e+06
3.23554e+06
3.23554e+06
3.23554e+06
3.23554e+06
3.23554e+06
3.23554e+06
3.23554e+06
3.23554e+06
3.23554e+06
3.23555e+06
3.23555e+06
3.23555e+06
3.23555e+06
3.23555e+06
3.23555e+06
3.23555e+06
3.23555e+06
3.23555e+06
3.23556e+06
3.23556e+06
3.23556e+06
3.23556e+06
3.23557e+06
3.23558e+06
3.23559e+06
3.23562e+06
3.23568e+06
3.23586e+06
3.23645e+06
3.23893e+06
3.25307e+06
3.36212e+06
4.43128e+06
1.79872e+07
1.87595e+07
1.87595e+07
1.87595e+07
1.87595e+07
1.87595e+07
1.87595e+07
1.87595e+07
1.87595e+07
1.87595e+07
1.87595e+07
1.87595e+07
1.87595e+07
1.87595e+07
1.87595e+07
1.87595e+07
1.87595e+07
1.87595e+07
1.87595e+07
1.87595e+07
1.87595e+07
1.87595e+07
1.87595e+07
1.87595e+07
1.87595e+07
1.87595e+07
1.87595e+07
1.87595e+07
1.87595e+07
1.87595e+07
1.87595e+07
1.87595e+07
1.87595e+07
1.87595e+07
1.87595e+07
1.87595e+07
1.87595e+07
1.87595e+07
1.87595e+07
1.87595e+07
1.87595e+07
1.87595e+07
1.87595e+07
1.87595e+07
1.87595e+07
1.87595e+07
1.87595e+07
1.87595e+07
1.87595e+07
1.87595e+07
1.87595e+07
6.65798e+07
6.49014e+07
6.57049e+07
6.79658e+07
6.43369e+07
6.98322e+07
6.44159e+07
6.78404e+07
6.7581e+07
6.76987e+07
6.76683e+07
6.76693e+07
6.74856e+07
6.7883e+07
6.78035e+07
5.53218e+07
6.76518e+07
6.7669e+07
6.7666e+07
6.7664e+07
3.1045e+06
3.27073e+06
3.29745e+06
3.31246e+06
3.27724e+06
3.3181e+06
3.30599e+06
3.3117e+06
3.30576e+06
3.32293e+06
3.3243e+06
3.32324e+06
3.31721e+06
3.30592e+06
3.32684e+06
3.29989e+06
3.33537e+06
3.31893e+06
3.32223e+06
3.25289e+06
1.19466e+07
1.08655e+07
1.14948e+07
1.2511e+07
1.07463e+07
1.30172e+07
1.19547e+07
1.18988e+07
1.19344e+07
1.19509e+07
1.1954e+07
1.19569e+07
1.19684e+07
1.2065e+07
1.19845e+07
1.13902e+07
1.29634e+07
1.19744e+07
1.19512e+07
1.19095e+07
1.87595e+07
1.87595e+07
1.87595e+07
1.87595e+07
1.87595e+07
1.87595e+07
1.87595e+07
1.87595e+07
1.87595e+07
1.87595e+07
1.87595e+07
1.87595e+07
1.87595e+07
1.87595e+07
1.87595e+07
1.87595e+07
1.87595e+07
1.87595e+07
1.87595e+07
1.87595e+07
1.87595e+07
1.87595e+07
1.87595e+07
1.87595e+07
1.87595e+07
1.87595e+07
1.87595e+07
1.87595e+07
1.87595e+07
1.87595e+07
1.87595e+07
1.87595e+07
1.87595e+07
1.87595e+07
1.87595e+07
1.87595e+07
1.87595e+07
1.87595e+07
1.87595e+07
1.87595e+07
1.87595e+07
1.87595e+07
1.87595e+07
1.87595e+07
1.87595e+07
1.87595e+07
1.87595e+07
1.87595e+07
1.87595e+07
1.87595e+07
1.87595e+07
1.87595e+07
1.87595e+07
1.87595e+07
1.87595e+07
1.87595e+07
1.87595e+07
1.87595e+07
1.87595e+07
1.87595e+07
1.87595e+07
1.87595e+07
1.87595e+07
1.87595e+07
1.87595e+07
1.87595e+07
1.87595e+07
1.87595e+07
1.87595e+07
1.87595e+07
1.87595e+07
1.87595e+07
1.87595e+07
1.87595e+07
1.87595e+07
1.87595e+07
1.87595e+07
1.87595e+07
1.87595e+07
1.87595e+07
1.87595e+07
1.87595e+07
1.87595e+07
1.87595e+07
1.87595e+07
1.87595e+07
1.87595e+07
1.87595e+07
1.87595e+07
1.87595e+07
1.87595e+07
1.87595e+07
1.87595e+07
1.87595e+07
1.87595e+07
1.87595e+07
1.87595e+07
1.87595e+07
1.87595e+07
1.87595e+07
1.79872e+07
4.43128e+06
3.36208e+06
3.25302e+06
3.23888e+06
3.2364e+06
3.23582e+06
3.23564e+06
3.23558e+06
3.23556e+06
3.23554e+06
3.23554e+06
3.23554e+06
3.23554e+06
3.23554e+06
3.23554e+06
3.23554e+06
3.23554e+06
3.23554e+06
3.23554e+06
3.23554e+06
3.23554e+06
3.23554e+06
3.23554e+06
3.23554e+06
3.23554e+06
3.23554e+06
3.23554e+06
3.23554e+06
3.23554e+06
3.23554e+06
3.23554e+06
3.23554e+06
3.23554e+06
3.23554e+06
3.23554e+06
3.23554e+06
3.23554e+06
3.23554e+06
3.23554e+06
3.23554e+06
3.23554e+06
3.23554e+06
3.23554e+06
3.23554e+06
3.23554e+06
3.23554e+06
3.23554e+06
3.23554e+06
3.23554e+06
3.23554e+06
3.23554e+06
3.23554e+06
3.23554e+06
3.23554e+06
3.23554e+06
3.23554e+06
3.23554e+06
3.23554e+06
3.23554e+06
3.23554e+06
3.23554e+06
3.23554e+06
3.23554e+06
3.23554e+06
3.23554e+06
3.23554e+06
3.23554e+06
3.23554e+06
3.23554e+06
3.23554e+06
3.23554e+06
3.23554e+06
3.23554e+06
3.23554e+06
3.23554e+06
3.23554e+06
3.23554e+06
3.23554e+06
3.23554e+06
3.23554e+06
3.23554e+06
3.23554e+06
3.23554e+06
3.23554e+06
3.23554e+06
3.23554e+06
3.23554e+06
3.23554e+06
3.23554e+06
3.23554e+06
3.23554e+06
3.23554e+06
3.23554e+06
3.23554e+06
3.23554e+06
3.23554e+06
3.23554e+06
3.23554e+06
3.23554e+06
1.79872e+07
3.2498e+06
1.50335e+06
1.1919e+06
1.12601e+06
1.10988e+06
1.10528e+06
1.10377e+06
1.1032e+06
1.10296e+06
1.10285e+06
1.10279e+06
1.10276e+06
1.10275e+06
1.10274e+06
1.10274e+06
1.10273e+06
1.10273e+06
1.10273e+06
1.10273e+06
1.10273e+06
1.10273e+06
1.10273e+06
1.10273e+06
1.10273e+06
1.10273e+06
1.10273e+06
1.10273e+06
1.10273e+06
1.10273e+06
1.10273e+06
1.10273e+06
1.10273e+06
1.10273e+06
1.10273e+06
1.10273e+06
1.10273e+06
1.10273e+06
1.10273e+06
1.10273e+06
1.10273e+06
1.10273e+06
1.10273e+06
1.10273e+06
1.10273e+06
1.10273e+06
1.10273e+06
1.10273e+06
1.10273e+06
1.10273e+06
1.10273e+06
1.10273e+06
1.10273e+06
1.10273e+06
1.10273e+06
1.10273e+06
1.10273e+06
1.10273e+06
1.10273e+06
1.10273e+06
1.10273e+06
1.10273e+06
1.10273e+06
1.10273e+06
1.10273e+06
1.10273e+06
1.10273e+06
1.10273e+06
1.10273e+06
1.10273e+06
1.10273e+06
1.10273e+06
1.10273e+06
1.10273e+06
1.10273e+06
1.10273e+06
1.10273e+06
1.10273e+06
1.10273e+06
1.10273e+06
1.10273e+06
1.10273e+06
1.10273e+06
1.10273e+06
1.10273e+06
1.10273e+06
1.10273e+06
1.10273e+06
1.10273e+06
1.10273e+06
1.10273e+06
1.10273e+06
1.10273e+06
1.10273e+06
1.10273e+06
1.10273e+06
1.10273e+06
1.10273e+06
1.10273e+06
1.10273e+06
1.79872e+07
3.12324e+06
1.16004e+06
712736
587425
548161
534644
529544
527444
526507
526057
525828
525706
525637
525596
525572
525557
525548
525542
525538
525536
525534
525533
525532
525531
525531
525530
525530
525530
525530
525530
525529
525529
525529
525529
525529
525529
525529
525529
525529
525529
525529
525529
525529
525529
525529
525529
525529
525529
525529
525529
525528
525528
525528
525528
525528
525528
525528
525528
525528
525528
525528
525528
525528
525528
525528
525528
525528
525528
525528
525528
525528
525528
525528
525528
525528
525528
525528
525528
525528
525528
525528
525528
525528
525528
525528
525528
525528
525528
525528
525528
525528
525528
525528
525528
525528
525528
525528
525528
525528
1.79872e+07
3.10627e+06
1.0848e+06
574746
407824
346205
321657
311227
306517
304264
303126
302523
302189
301996
301882
301812
301768
301740
301721
301709
301700
301694
301690
301687
301684
301682
301681
301679
301678
301677
301677
301676
301676
301675
301675
301675
301674
301674
301674
301674
301674
301674
301673
301673
301673
301673
301673
301672
301672
301672
301672
301671
301671
301671
301671
301671
301671
301670
301670
301670
301670
301670
301670
301670
301670
301670
301670
301670
301670
301670
301670
301670
301670
301670
301670
301670
301670
301670
301670
301670
301670
301670
301670
301670
301670
301670
301670
301670
301670
301670
301670
301670
301670
301670
301670
301670
301670
301670
301670
301670
1.79872e+07
3.10326e+06
1.06588e+06
530333
340021
262033
227490
211336
203425
199380
197226
196035
195353
194950
194705
194552
194455
194391
194349
194320
194300
194285
194275
194267
194261
194256
194251
194248
194245
194243
194241
194239
194238
194237
194236
194235
194234
194234
194233
194233
194232
194232
194232
194231
194231
194230
194230
194229
194229
194229
194228
194228
194227
194227
194226
194226
194226
194225
194225
194225
194225
194225
194225
194224
194224
194224
194224
194224
194224
194224
194224
194224
194224
194224
194224
194224
194224
194224
194224
194224
194224
194224
194224
194224
194224
194224
194224
194224
194224
194224
194224
194225
194225
194225
194225
194225
194225
194225
194225
194225
1.79872e+07
3.10254e+06
1.06039e+06
514701
312419
224043
181896
160681
149566
143540
140168
138225
137074
136374
135939
135663
135484
135365
135285
135230
135191
135162
135141
135125
135112
135102
135093
135086
135080
135075
135070
135067
135064
135061
135059
135057
135056
135055
135054
135053
135052
135051
135051
135050
135049
135048
135048
135047
135046
135045
135044
135043
135043
135042
135041
135041
135040
135040
135039
135039
135039
135039
135038
135038
135038
135038
135038
135038
135038
135038
135038
135038
135038
135038
135038
135038
135038
135038
135038
135038
135038
135038
135038
135038
135038
135038
135038
135038
135038
135038
135038
135038
135038
135038
135039
135039
135039
135039
135039
135039
1.79872e+07
3.10233e+06
1.05856e+06
508701
300463
205943
158561
133375
119452
111519
106880
104104
102405
101344
100668
100231
99942
99748.2
99615.6
99523
99456.8
99408.1
99371.2
99342.4
99319.4
99300.4
99284.6
99271.3
99260
99250.4
99242.3
99235.5
99229.8
99225.1
99221.2
99217.9
99215.3
99213.1
99211.2
99209.7
99208.3
99207
99205.7
99204.5
99203.3
99202.1
99200.8
99199.5
99198.1
99196.8
99195.5
99194.2
99193.1
99191.9
99190.9
99190
99189.2
99188.5
99187.9
99187.4
99187
99186.6
99186.4
99186.1
99186
99185.8
99185.8
99185.7
99185.6
99185.6
99185.6
99185.5
99185.5
99185.5
99185.5
99185.5
99185.5
99185.5
99185.5
99185.5
99185.5
99185.6
99185.6
99185.6
99185.6
99185.7
99185.7
99185.8
99185.8
99185.9
99186
99186.1
99186.3
99186.4
99186.6
99186.7
99186.9
99187
99187.2
99187.2
1.79872e+07