/*--------------------------------*- C++ -*----------------------------------*\
| =========                 |                                                 |
| \\      /  F ield         | foam-extend: Open Source CFD                    |
|  \\    /   O peration     | Version:     4.0                                |
|   \\  /    A nd           | Web:         http://www.foam-extend.org         |
|    \\/     M anipulation  |                                                 |
\*---------------------------------------------------------------------------*/
FoamFile
{
    version     2.0;
    format      ascii;
    class       surfaceScalarField;
    location    "0.0009";
    object      phi;
}
// * * * * * * * * * * * * * * * * * * * * * * * * * * * * * * * * * * * * * //

dimensions      [0 3 -1 0 0 0 0];

internalField   nonuniform List<scalar> 
57362
(
5.28231e-11
3.13675e-15
5.28137e-11
9.45815e-15
5.27977e-11
1.59239e-14
5.27751e-11
2.26326e-14
5.27454e-11
2.96861e-14
5.27082e-11
3.71913e-14
5.2663e-11
4.52611e-14
5.26089e-11
5.40164e-14
5.25453e-11
6.35876e-14
5.24712e-11
7.41157e-14
5.23855e-11
8.57549e-14
5.22868e-11
9.86735e-14
5.21737e-11
1.13056e-13
5.20446e-11
1.29107e-13
5.18975e-11
1.47048e-13
5.17304e-11
1.67124e-13
5.15408e-11
1.89607e-13
5.1326e-11
2.14789e-13
5.1083e-11
2.42993e-13
5.08084e-11
2.7457e-13
5.04984e-11
3.099e-13
5.0149e-11
3.49388e-13
4.97555e-11
3.93479e-13
4.93129e-11
4.42619e-13
4.88155e-11
4.97322e-13
4.82574e-11
5.58036e-13
4.76321e-11
6.25356e-13
4.69323e-11
6.9965e-13
4.61507e-11
7.81618e-13
4.52792e-11
8.71381e-13
4.43094e-11
9.69816e-13
4.32327e-11
1.07651e-12
4.20402e-11
1.19264e-12
4.0723e-11
1.31685e-12
3.92725e-11
1.45073e-12
3.76805e-11
1.59157e-12
3.59394e-11
1.74138e-12
3.40431e-11
1.89581e-12
3.19864e-11
2.05701e-12
2.97667e-11
2.21921e-12
2.7383e-11
2.38398e-12
2.48377e-11
2.54487e-12
2.21359e-11
2.70208e-12
1.92862e-11
2.84941e-12
1.63008e-11
2.98558e-12
1.31955e-11
3.10523e-12
9.98936e-12
3.20628e-12
6.70461e-12
3.28474e-12
3.36602e-12
3.33873e-12
3.36609e-12
5.28238e-11
6.22695e-15
5.28145e-11
1.8776e-14
5.27988e-11
3.16118e-14
5.27765e-11
4.49301e-14
5.27473e-11
5.89333e-14
5.27106e-11
7.38337e-14
5.2666e-11
8.98559e-14
5.26128e-11
1.0724e-13
5.25501e-11
1.26245e-13
5.24771e-11
1.47152e-13
5.23926e-11
1.70267e-13
5.22953e-11
1.95925e-13
5.21839e-11
2.24494e-13
5.20566e-11
2.56378e-13
5.19116e-11
2.92022e-13
5.17468e-11
3.31914e-13
5.15598e-11
3.76593e-13
5.13479e-11
4.26645e-13
5.11082e-11
4.82715e-13
5.08372e-11
5.45501e-13
5.05313e-11
6.15768e-13
5.01864e-11
6.94322e-13
4.97978e-11
7.82059e-13
4.93605e-11
8.79872e-13
4.8869e-11
9.88798e-13
4.83172e-11
1.10974e-12
4.76987e-11
1.2439e-12
4.70063e-11
1.39202e-12
4.62324e-11
1.55554e-12
4.53689e-11
1.73469e-12
4.44076e-11
1.93132e-12
4.33394e-11
2.14453e-12
4.21554e-11
2.37686e-12
4.08466e-11
2.62542e-12
3.9404e-11
2.8938e-12
3.78192e-11
3.17606e-12
3.60842e-11
3.47704e-12
3.41925e-11
3.78708e-12
3.21386e-11
4.11171e-12
2.99195e-11
4.43802e-12
2.75338e-11
4.77054e-12
2.49836e-11
5.09495e-12
2.22737e-11
5.41279e-12
1.94125e-11
5.71056e-12
1.64124e-11
5.9863e-12
1.32892e-11
6.22864e-12
1.00624e-11
6.43357e-12
6.75467e-12
6.59272e-12
3.39147e-12
6.70233e-12
6.75789e-12
5.28413e-11
9.22561e-15
5.28323e-11
2.78179e-14
5.28171e-11
4.68355e-14
5.27954e-11
6.65686e-14
5.27671e-11
8.73175e-14
5.27315e-11
1.09397e-13
5.26882e-11
1.33141e-13
5.26365e-11
1.58905e-13
5.25757e-11
1.87074e-13
5.25048e-11
2.18065e-13
5.24227e-11
2.52334e-13
5.23282e-11
2.90378e-13
5.222e-11
3.32745e-13
5.20963e-11
3.80036e-13
5.19554e-11
4.32915e-13
5.17952e-11
4.92109e-13
5.16134e-11
5.5842e-13
5.14073e-11
6.32727e-13
5.1174e-11
7.15994e-13
5.09102e-11
8.09264e-13
5.06122e-11
9.13687e-13
5.02761e-11
1.03047e-12
4.98971e-11
1.16098e-12
4.94704e-11
1.30653e-12
4.89905e-11
1.46873e-12
4.84512e-11
1.64892e-12
4.78461e-11
1.84896e-12
4.7168e-11
2.06997e-12
4.64094e-11
2.3142e-12
4.55619e-11
2.58196e-12
4.4617e-11
2.87623e-12
4.35656e-11
3.19555e-12
4.23985e-11
3.5441e-12
4.11061e-11
3.91725e-12
3.9679e-11
4.32102e-12
3.81083e-11
4.74596e-12
3.63853e-11
5.20021e-12
3.45028e-11
5.66853e-12
3.24544e-11
6.16017e-12
3.02365e-11
6.65493e-12
2.78466e-11
7.16035e-12
2.52863e-11
7.65429e-12
2.25596e-11
8.13926e-12
1.9675e-11
8.59442e-12
1.66444e-11
9.01668e-12
1.34841e-11
9.38839e-12
1.02144e-11
9.70316e-12
6.85885e-12
9.94789e-12
3.44445e-12
1.01166e-11
1.02021e-11
5.28593e-11
1.2088e-14
5.28507e-11
3.64492e-14
5.28361e-11
6.13684e-14
5.28155e-11
8.72263e-14
5.27884e-11
1.14417e-13
5.27544e-11
1.43354e-13
5.27131e-11
1.74475e-13
5.26637e-11
2.08249e-13
5.26056e-11
2.45179e-13
5.25379e-11
2.85816e-13
5.24594e-11
3.30758e-13
5.23691e-11
3.80661e-13
5.22656e-11
4.36246e-13
5.21474e-11
4.98307e-13
5.20125e-11
5.67718e-13
5.18592e-11
6.45443e-13
5.16851e-11
7.32542e-13
5.14876e-11
8.3018e-13
5.12639e-11
9.39636e-13
5.10109e-11
1.0623e-12
5.07248e-11
1.1997e-12
5.04018e-11
1.35346e-12
5.00374e-11
1.52539e-12
4.96266e-11
1.71729e-12
4.91641e-11
1.9313e-12
4.86437e-11
2.16925e-12
4.8059e-11
2.4337e-12
4.74027e-11
2.72614e-12
4.66673e-11
3.04977e-12
4.58441e-11
3.40494e-12
4.49247e-11
3.79604e-12
4.38991e-11
4.22079e-12
4.27582e-11
4.68574e-12
4.14913e-11
5.1837e-12
4.00887e-11
5.7247e-12
3.85403e-11
6.29384e-12
3.68364e-11
6.90563e-12
3.4969e-11
7.53546e-12
3.29297e-11
8.20128e-12
3.07144e-11
8.86992e-12
2.83187e-11
9.55796e-12
2.57437e-11
1.02294e-11
2.29923e-11
1.08924e-11
2.00724e-11
1.15147e-11
1.69961e-11
1.20944e-11
1.37798e-11
1.26052e-11
1.04452e-11
1.30389e-11
7.01717e-12
1.33765e-11
3.52501e-12
1.36096e-11
1.37279e-11
5.28774e-11
1.47715e-14
5.28694e-11
4.45411e-14
5.28557e-11
7.49936e-14
5.28364e-11
1.06595e-13
5.28109e-11
1.39829e-13
5.27791e-11
1.752e-13
5.27403e-11
2.13246e-13
5.2694e-11
2.5454e-13
5.26395e-11
2.99702e-13
5.25759e-11
3.49407e-13
5.25023e-11
4.04388e-13
5.24175e-11
4.65454e-13
5.23202e-11
5.33491e-13
5.2209e-11
6.09477e-13
5.20822e-11
6.94493e-13
5.19379e-11
7.89726e-13
5.1774e-11
8.96491e-13
5.15879e-11
1.01623e-12
5.1377e-11
1.15053e-12
5.11382e-11
1.30113e-12
5.08679e-11
1.46993e-12
5.05624e-11
1.65897e-12
5.02172e-11
1.87051e-12
4.98276e-11
2.10684e-12
4.93882e-11
2.37068e-12
4.8893e-11
2.66434e-12
4.83356e-11
2.99115e-12
4.77085e-11
3.35298e-12
4.70042e-11
3.75411e-12
4.62138e-11
4.19491e-12
4.53285e-11
4.68144e-12
4.43381e-11
5.21052e-12
4.32326e-11
5.79146e-12
4.20007e-11
6.4144e-12
4.06318e-11
7.09388e-12
3.91146e-11
7.80947e-12
3.74379e-11
8.58238e-12
3.55924e-11
9.37899e-12
3.3568e-11
1.02255e-11
3.13587e-11
1.10771e-11
2.89583e-11
1.19577e-11
2.6366e-11
1.28195e-11
2.35835e-11
1.36741e-11
2.06175e-11
1.44788e-11
1.74801e-11
1.5231e-11
1.4188e-11
1.58959e-11
1.07644e-11
1.64619e-11
7.23647e-12
1.69035e-11
3.6367e-12
1.72088e-11
1.73639e-11
5.29116e-11
1.72365e-14
5.29042e-11
5.19744e-14
5.28917e-11
8.75107e-14
5.28739e-11
1.24391e-13
5.28505e-11
1.63179e-13
5.28212e-11
2.04467e-13
5.27856e-11
2.48884e-13
5.2743e-11
2.97102e-13
5.26929e-11
3.49847e-13
5.26344e-11
4.0791e-13
5.25666e-11
4.72155e-13
5.24885e-11
5.43529e-13
5.23989e-11
6.23077e-13
5.22964e-11
7.11951e-13
5.21795e-11
8.11426e-13
5.20463e-11
9.22907e-13
5.18948e-11
1.04795e-12
5.17228e-11
1.18827e-12
5.15275e-11
1.34575e-12
5.13062e-11
1.52246e-12
5.10554e-11
1.7207e-12
5.07715e-11
1.94288e-12
5.04502e-11
2.19178e-12
5.00869e-11
2.47013e-12
4.96763e-11
2.78128e-12
4.92125e-11
3.12803e-12
4.86892e-11
3.51457e-12
4.80989e-11
3.94315e-12
4.7434e-11
4.41934e-12
4.66852e-11
4.94339e-12
4.58438e-11
5.52361e-12
4.48984e-11
6.15538e-12
4.3839e-11
6.85219e-12
4.26529e-11
7.59973e-12
4.13284e-11
8.42059e-12
3.98527e-11
9.28404e-12
3.82126e-11
1.02258e-11
3.63974e-11
1.1193e-11
3.43929e-11
1.22341e-11
3.21932e-11
1.32761e-11
2.97869e-11
1.43684e-11
2.7173e-11
1.54335e-11
2.43508e-11
1.65002e-11
2.13257e-11
1.75048e-11
1.81098e-11
1.845e-11
1.47197e-11
1.92872e-11
1.11808e-11
2.00031e-11
7.5228e-12
2.05627e-11
3.78264e-12
2.09507e-11
2.11479e-11
5.29452e-11
1.94458e-14
5.29385e-11
5.86367e-14
5.29273e-11
9.87305e-14
5.29113e-11
1.40344e-13
5.28904e-11
1.84115e-13
5.28641e-11
2.30714e-13
5.28322e-11
2.80853e-13
5.2794e-11
3.35293e-13
5.2749e-11
3.94859e-13
5.26964e-11
4.60448e-13
5.26355e-11
5.33041e-13
5.25653e-11
6.13716e-13
5.24847e-11
7.03664e-13
5.23925e-11
8.042e-13
5.22871e-11
9.16779e-13
5.2167e-11
1.04301e-12
5.20303e-11
1.18468e-12
5.18747e-11
1.34376e-12
5.1698e-11
1.52243e-12
5.14974e-11
1.72309e-12
5.12697e-11
1.94838e-12
5.10114e-11
2.20115e-12
5.07185e-11
2.48463e-12
5.03865e-11
2.80205e-12
5.00104e-11
3.15738e-12
4.95843e-11
3.55398e-12
4.9102e-11
3.99691e-12
4.85559e-11
4.48885e-12
4.79386e-11
5.0368e-12
4.72403e-11
5.64098e-12
4.64521e-11
6.3121e-12
4.55619e-11
7.04427e-12
4.45592e-11
7.85538e-12
4.34298e-11
8.72707e-12
4.21609e-11
9.68981e-12
4.07382e-11
1.0704e-11
3.91457e-11
1.18181e-11
3.73712e-11
1.29641e-11
3.53971e-11
1.42072e-11
3.32145e-11
1.54548e-11
3.08094e-11
1.67717e-11
2.8176e-11
1.80627e-11
2.53112e-11
1.93628e-11
2.22178e-11
2.05944e-11
1.8907e-11
2.17587e-11
1.53959e-11
2.27953e-11
1.17121e-11
2.36851e-11
7.88916e-12
2.43835e-11
3.96961e-12
2.48687e-11
2.5116e-11
5.29776e-11
2.13656e-14
5.29718e-11
6.44267e-14
5.29621e-11
1.08482e-13
5.29482e-11
1.54211e-13
5.293e-11
2.02318e-13
5.29072e-11
2.53541e-13
5.28794e-11
3.08665e-13
5.28461e-11
3.68533e-13
5.28069e-11
4.34054e-13
5.27611e-11
5.0622e-13
5.27081e-11
5.8612e-13
5.26468e-11
6.74948e-13
5.25764e-11
7.74028e-13
5.24958e-11
8.84821e-13
5.24036e-11
1.00895e-12
5.22984e-11
1.14822e-12
5.21785e-11
1.30462e-12
5.20419e-11
1.48036e-12
5.18864e-11
1.67791e-12
5.17095e-11
1.89997e-12
5.15083e-11
2.14955e-12
5.12796e-11
2.42988e-12
5.10195e-11
2.74469e-12
5.07238e-11
3.09767e-12
5.03879e-11
3.49347e-12
5.00057e-11
3.93598e-12
4.95717e-11
4.43124e-12
4.90778e-11
4.98238e-12
4.85173e-11
5.59804e-12
4.78794e-11
6.27827e-12
4.71559e-11
7.03696e-12
4.6333e-11
7.86607e-12
4.54009e-11
8.79025e-12
4.43423e-11
9.7838e-12
4.31448e-11
1.08919e-11
4.17901e-11
1.2056e-11
4.02605e-11
1.33548e-11
3.85412e-11
1.46801e-11
3.6607e-11
1.61504e-11
3.44518e-11
1.76078e-11
3.2048e-11
1.91849e-11
2.93927e-11
2.07179e-11
2.64784e-11
2.22852e-11
2.33037e-11
2.37708e-11
1.98808e-11
2.51878e-11
1.62237e-11
2.6455e-11
1.23645e-11
2.75488e-11
8.33967e-12
2.8411e-11
4.19992e-12
2.90118e-11
2.93187e-11
5.30246e-11
2.29672e-14
5.30198e-11
6.92571e-14
5.30117e-11
1.16619e-13
5.30001e-11
1.65784e-13
5.29849e-11
2.17514e-13
5.29658e-11
2.72603e-13
5.29426e-11
3.31901e-13
5.29148e-11
3.96317e-13
5.2882e-11
4.66836e-13
5.28437e-11
5.44532e-13
5.27992e-11
6.30584e-13
5.27479e-11
7.26292e-13
5.26888e-11
8.33093e-13
5.2621e-11
9.52581e-13
5.25435e-11
1.08653e-12
5.24548e-11
1.2369e-12
5.23535e-11
1.4059e-12
5.22379e-11
1.59595e-12
5.2106e-11
1.80977e-12
5.19556e-11
2.05035e-12
5.17841e-11
2.32107e-12
5.15884e-11
2.62551e-12
5.13652e-11
2.96788e-12
5.11104e-11
3.35236e-12
5.08196e-11
3.78426e-12
5.04873e-11
4.26803e-12
5.01079e-11
4.81073e-12
4.96737e-11
5.41602e-12
4.91778e-11
6.09421e-12
4.86095e-11
6.84546e-12
4.79603e-11
7.6867e-12
4.72157e-11
8.60857e-12
4.6365e-11
9.6417e-12
4.53902e-11
1.07553e-11
4.42762e-11
1.20064e-11
4.30041e-11
1.33236e-11
4.15514e-11
1.4807e-11
3.99022e-11
1.63236e-11
3.80261e-11
1.8024e-11
3.59116e-11
1.97157e-11
3.35297e-11
2.15622e-11
3.08651e-11
2.33749e-11
2.79055e-11
2.52394e-11
2.46448e-11
2.70243e-11
2.10913e-11
2.87364e-11
1.726e-11
3.02804e-11
1.31847e-11
3.16202e-11
8.90854e-12
3.26829e-11
4.49122e-12
3.3426e-11
3.38067e-11
5.30693e-11
2.42254e-14
5.30656e-11
7.30523e-14
5.30592e-11
1.23013e-13
5.30501e-11
1.74882e-13
5.30381e-11
2.29464e-13
5.30231e-11
2.87602e-13
5.30048e-11
3.50195e-13
5.29829e-11
4.18208e-13
5.29571e-11
4.92688e-13
5.29268e-11
5.74776e-13
5.28917e-11
6.65727e-13
5.2851e-11
7.66927e-13
5.28042e-11
8.79911e-13
5.27504e-11
1.00639e-12
5.26887e-11
1.14825e-12
5.26179e-11
1.30762e-12
5.2537e-11
1.48687e-12
5.24443e-11
1.68861e-12
5.23383e-11
1.91581e-12
5.22169e-11
2.17172e-12
5.20779e-11
2.46002e-12
5.19187e-11
2.78468e-12
5.17363e-11
3.15035e-12
5.15269e-11
3.56168e-12
5.12867e-11
4.02463e-12
5.10103e-11
4.54426e-12
5.06928e-11
5.12864e-12
5.03263e-11
5.78204e-12
4.99052e-11
6.51653e-12
4.94171e-11
7.33241e-12
4.8856e-11
8.25029e-12
4.82038e-11
9.25865e-12
4.74535e-11
1.03969e-11
4.65801e-11
1.16248e-11
4.55739e-11
1.30214e-11
4.44058e-11
1.44854e-11
4.30554e-11
1.61713e-11
4.15017e-11
1.78693e-11
3.96982e-11
1.9846e-11
3.76497e-11
2.17578e-11
3.52855e-11
2.39455e-11
3.26062e-11
2.60539e-11
2.95969e-11
2.82645e-11
2.62359e-11
3.03892e-11
2.2536e-11
3.24481e-11
1.85003e-11
3.43215e-11
1.41712e-11
3.59577e-11
9.59414e-12
3.72651e-11
4.84326e-12
3.81829e-11
3.8655e-11
5.31111e-11
2.51204e-14
5.31084e-11
7.57523e-14
5.31038e-11
1.27563e-13
5.30974e-11
1.81359e-13
5.30889e-11
2.37977e-13
5.30782e-11
2.98296e-13
5.30651e-11
3.63253e-13
5.30495e-11
4.33853e-13
5.30309e-11
5.1119e-13
5.30093e-11
5.96458e-13
5.2984e-11
6.9097e-13
5.29548e-11
7.9618e-13
5.2921e-11
9.13701e-13
5.2882e-11
1.04533e-12
5.28372e-11
1.19307e-12
5.27857e-11
1.35916e-12
5.27264e-11
1.54611e-12
5.26583e-11
1.75671e-12
5.258e-11
1.99413e-12
5.24898e-11
2.26185e-12
5.2386e-11
2.56385e-12
5.22662e-11
2.90442e-12
5.21279e-11
3.28861e-12
5.19679e-11
3.72157e-12
5.17828e-11
4.20985e-12
5.15675e-11
4.75915e-12
5.13179e-11
5.37847e-12
5.10262e-11
6.0729e-12
5.06872e-11
6.85606e-12
5.02889e-11
7.729e-12
4.98249e-11
8.71523e-12
4.92774e-11
9.80301e-12
4.86376e-11
1.1038e-11
4.78818e-11
1.23757e-11
4.69944e-11
1.39097e-11
4.59497e-11
1.55233e-11
4.47171e-11
1.74029e-11
4.32782e-11
1.92998e-11
4.15791e-11
2.15398e-11
3.96139e-11
2.3713e-11
3.73258e-11
2.62235e-11
3.46758e-11
2.86903e-11
3.16385e-11
3.12903e-11
2.81871e-11
3.38273e-11
2.43227e-11
3.63022e-11
2.00515e-11
3.85817e-11
1.54126e-11
4.05886e-11
1.04628e-11
4.22072e-11
5.29036e-12
4.33494e-11
4.39398e-11
5.31654e-11
2.56378e-14
5.31639e-11
7.73136e-14
5.31612e-11
1.30196e-13
5.31575e-11
1.85112e-13
5.31525e-11
2.42917e-13
5.31463e-11
3.04513e-13
5.31387e-11
3.70861e-13
5.31296e-11
4.42994e-13
5.31187e-11
5.22035e-13
5.3106e-11
6.09214e-13
5.30911e-11
7.05885e-13
5.30737e-11
8.13548e-13
5.30535e-11
9.33872e-13
5.30301e-11
1.06872e-12
5.3003e-11
1.22017e-12
5.29716e-11
1.39056e-12
5.29352e-11
1.58251e-12
5.2893e-11
1.79895e-12
5.28439e-11
2.0432e-12
5.27868e-11
2.31895e-12
5.27203e-11
2.63041e-12
5.26424e-11
2.98219e-12
5.25515e-11
3.37968e-12
5.24444e-11
3.82847e-12
5.23189e-11
4.33566e-12
5.21701e-11
4.90764e-12
5.19951e-11
5.55419e-12
5.17858e-11
6.2814e-12
5.15394e-11
7.10421e-12
5.12418e-11
8.02487e-12
5.08914e-11
9.06952e-12
5.04638e-11
1.02267e-11
4.99608e-11
1.1549e-11
4.93427e-11
1.29863e-11
4.86137e-11
1.46538e-11
4.772e-11
1.64039e-11
4.66529e-11
1.84956e-11
4.53728e-11
2.05613e-11
4.37997e-11
2.3149e-11
4.1993e-11
2.55027e-11
3.97457e-11
2.85076e-11
3.70897e-11
3.13472e-11
3.40285e-11
3.43797e-11
3.0472e-11
3.73929e-11
2.64373e-11
4.03574e-11
2.1894e-11
4.31362e-11
1.68975e-11
4.55996e-11
1.1505e-11
4.76095e-11
5.82889e-12
4.90355e-11
4.97772e-11
5.32154e-11
2.57684e-14
5.3215e-11
7.77087e-14
5.32143e-11
1.30866e-13
5.32133e-11
1.86073e-13
5.32121e-11
2.44194e-13
5.32104e-11
3.06139e-13
5.32084e-11
3.7288e-13
5.3206e-11
4.4546e-13
5.3203e-11
5.25018e-13
5.31994e-11
6.128e-13
5.31951e-11
7.10181e-13
5.31899e-11
8.18686e-13
5.31838e-11
9.40016e-13
5.31764e-11
1.07607e-12
5.31676e-11
1.22898e-12
5.3157e-11
1.40114e-12
5.31443e-11
1.59525e-12
5.31289e-11
1.81434e-12
5.31103e-11
2.06184e-12
5.30876e-11
2.3416e-12
5.306e-11
2.65801e-12
5.30262e-11
3.01593e-12
5.29849e-11
3.42105e-12
5.29337e-11
3.87938e-12
5.28712e-11
4.39842e-12
5.2793e-11
4.98529e-12
5.26972e-11
5.65039e-12
5.25764e-11
6.40102e-12
5.24285e-11
7.253e-12
5.22405e-11
8.21059e-12
5.20103e-11
9.3013e-12
5.17162e-11
1.05166e-11
5.13553e-11
1.19121e-11
5.08953e-11
1.34395e-11
5.03265e-11
1.52247e-11
4.96103e-11
1.71103e-11
4.87115e-11
1.93938e-11
4.76094e-11
2.16516e-11
4.62041e-11
2.45457e-11
4.45377e-11
2.71567e-11
4.24997e-11
3.05256e-11
3.99792e-11
3.38423e-11
3.6941e-11
3.73955e-11
3.33178e-11
4.09917e-11
2.90922e-11
4.45632e-11
2.42458e-11
4.79625e-11
1.88111e-11
5.1019e-11
1.28613e-11
5.35461e-11
6.53251e-12
5.53546e-11
5.6301e-11
5.32601e-11
2.55092e-14
5.32609e-11
7.69282e-14
5.32622e-11
1.29556e-13
5.32641e-11
1.84219e-13
5.32665e-11
2.41776e-13
5.32695e-11
3.03134e-13
5.32731e-11
3.69257e-13
5.32774e-11
4.41186e-13
5.32823e-11
5.20057e-13
5.3288e-11
6.07113e-13
5.32945e-11
7.03729e-13
5.33017e-11
8.11434e-13
5.33098e-11
9.31934e-13
5.33187e-11
1.06714e-12
5.33285e-11
1.2192e-12
5.33391e-11
1.39053e-12
5.33505e-11
1.58386e-12
5.33626e-11
1.80229e-12
5.33751e-11
2.04931e-12
5.33878e-11
2.32886e-12
5.34004e-11
2.64547e-12
5.34121e-11
3.00418e-12
5.34224e-11
3.41087e-12
5.34297e-11
3.87193e-12
5.34334e-11
4.39515e-12
5.34299e-11
4.98835e-12
5.3419e-11
5.66228e-12
5.33932e-11
6.42575e-12
5.33539e-11
7.29463e-12
5.32854e-11
8.27648e-12
5.31942e-11
9.39777e-12
5.3048e-11
1.06571e-11
5.28654e-11
1.21061e-11
5.25824e-11
1.37103e-11
5.22414e-11
1.55887e-11
5.17285e-11
1.75996e-11
5.11057e-11
2.00593e-11
5.02405e-11
2.24771e-11
4.90498e-11
2.58045e-11
4.781e-11
2.83514e-11
4.58049e-11
3.25975e-11
4.32122e-11
3.6446e-11
4.02533e-11
4.03985e-11
3.65787e-11
4.46888e-11
3.22e-11
4.8974e-11
2.70144e-11
5.3172e-11
2.10818e-11
5.69754e-11
1.44788e-11
6.01665e-11
7.376e-12
6.24725e-11
6.36897e-11
5.33152e-11
2.48627e-14
5.33172e-11
7.498e-14
5.33205e-11
1.26279e-13
5.33251e-11
1.79567e-13
5.33312e-11
2.35687e-13
5.33388e-11
2.95523e-13
5.3348e-11
3.60022e-13
5.3359e-11
4.30206e-13
5.33719e-11
5.07187e-13
5.33868e-11
5.92188e-13
5.3404e-11
6.86563e-13
5.34236e-11
7.91819e-13
5.34459e-11
9.09641e-13
5.34711e-11
1.04192e-12
5.34995e-11
1.19079e-12
5.35314e-11
1.35865e-12
5.35671e-11
1.54823e-12
5.36067e-11
1.76261e-12
5.36507e-11
2.00532e-12
5.36992e-11
2.28033e-12
5.37525e-11
2.59221e-12
5.38105e-11
2.94613e-12
5.38734e-11
3.34805e-12
5.39404e-11
3.80465e-12
5.40119e-11
4.32387e-12
5.40855e-11
4.9142e-12
5.41619e-11
5.58647e-12
5.42352e-11
6.35104e-12
5.43076e-11
7.2235e-12
5.43663e-11
8.21493e-12
5.44162e-11
9.35019e-12
5.44323e-11
1.06356e-11
5.44239e-11
1.21183e-11
5.43459e-11
1.37792e-11
5.42103e-11
1.57294e-11
5.3948e-11
1.7848e-11
5.35473e-11
2.0464e-11
5.29545e-11
2.30523e-11
5.19607e-11
2.67895e-11
5.08594e-11
2.94469e-11
4.94328e-11
1.86139e-11
1.5375e-11
4.72938e-11
1.75834e-11
2.09481e-11
4.44391e-11
1.9925e-11
2.32877e-11
4.07632e-11
2.25307e-11
2.57897e-11
3.61994e-11
2.52148e-11
2.82841e-11
3.0666e-11
2.79381e-11
3.0726e-11
2.4135e-11
3.05524e-11
3.29206e-11
1.66844e-11
3.28881e-11
3.47019e-11
8.53348e-12
3.473e-11
3.58733e-11
3.59075e-11
3.62986e-11
5.3362e-11
2.38378e-14
5.33651e-11
7.18901e-14
5.33703e-11
1.21078e-13
5.33777e-11
1.72181e-13
5.33874e-11
2.26006e-13
5.33995e-11
2.83407e-13
5.34142e-11
3.45296e-13
5.34318e-11
4.12657e-13
5.34524e-11
4.86565e-13
5.34764e-11
5.68203e-13
5.35041e-11
6.58881e-13
5.35358e-11
7.6006e-13
5.35721e-11
8.73375e-13
5.36134e-11
1.00067e-12
5.36601e-11
1.14402e-12
5.3713e-11
1.30577e-12
5.37726e-11
1.48861e-12
5.38397e-11
1.69556e-12
5.39149e-11
1.93009e-12
5.39991e-11
2.19616e-12
5.40931e-11
2.49829e-12
5.41975e-11
2.84168e-12
5.43134e-11
3.23227e-12
5.4441e-11
3.67693e-12
5.45817e-11
4.18355e-12
5.47342e-11
4.76121e-12
5.49013e-11
5.42047e-12
5.50777e-11
6.17341e-12
5.52695e-11
7.03428e-12
5.54623e-11
8.0191e-12
5.56712e-11
9.14736e-12
5.58596e-11
1.044e-11
5.60671e-11
1.19242e-11
5.62038e-11
1.36264e-11
5.63767e-11
1.55853e-11
5.63572e-11
1.78328e-11
5.64585e-11
2.04229e-11
5.60395e-11
2.33966e-11
5.61452e-11
2.68135e-11
2.8032e-11
3.07729e-11
2.66182e-11
-1.57553e-11
1.63991e-11
2.77035e-11
-2.60714e-11
2.55705e-11
1.80478e-11
-2.52512e-11
2.46001e-11
2.05807e-11
-2.39961e-11
2.31705e-11
2.33843e-11
-2.22992e-11
2.1212e-11
2.63406e-11
-2.00228e-11
1.86344e-11
2.93649e-11
-1.71039e-11
1.54124e-11
3.22724e-11
-1.35623e-11
1.15749e-11
3.48932e-11
-9.44231e-12
7.19853e-12
3.69845e-11
-4.85252e-12
2.4447e-12
3.83237e-11
5.34079e-11
2.2449e-14
5.34121e-11
6.77026e-14
5.34191e-11
1.14029e-13
5.34292e-11
1.62163e-13
5.34423e-11
2.12869e-13
5.34588e-11
2.66954e-13
5.34788e-11
3.2528e-13
5.35027e-11
3.8878e-13
5.35307e-11
4.58473e-13
5.35635e-11
5.35482e-13
5.36013e-11
6.2105e-13
5.36448e-11
7.16569e-13
5.36946e-11
8.23598e-13
5.37514e-11
9.43896e-13
5.38159e-11
1.07945e-12
5.38892e-11
1.23252e-12
5.39721e-11
1.40567e-12
5.40659e-11
1.60183e-12
5.41716e-11
1.82436e-12
5.42906e-11
2.0771e-12
5.44245e-11
2.36446e-12
5.45746e-11
2.69155e-12
5.47428e-11
3.06418e-12
5.49302e-11
3.48925e-12
5.51396e-11
3.97446e-12
5.53709e-11
4.52926e-12
5.56283e-11
5.16378e-12
5.59089e-11
5.8914e-12
5.62195e-11
6.72508e-12
5.65509e-11
7.68471e-12
5.69157e-11
8.78555e-12
5.72902e-11
1.00596e-11
5.76999e-11
1.15201e-11
5.80894e-11
1.32258e-11
5.85171e-11
1.51679e-11
5.88498e-11
1.74796e-11
5.92503e-11
2.0043e-11
5.93526e-11
2.32535e-11
5.97338e-11
2.64815e-11
3.06152e-11
3.12547e-11
2.85441e-11
-1.65417e-11
1.69266e-11
3.04337e-11
-2.83456e-11
2.79815e-11
-1.88108e-11
1.90905e-11
-2.7767e-11
2.72533e-11
-2.15193e-11
2.19921e-11
-2.67566e-11
2.6023e-11
-2.45223e-11
2.52446e-11
-2.52148e-11
2.41635e-11
-2.77278e-11
2.87878e-11
-2.29932e-11
2.15185e-11
-3.10078e-11
3.2502e-11
-1.98534e-11
1.8009e-11
-3.42555e-11
3.61093e-11
-1.59431e-11
1.36863e-11
-3.71976e-11
3.94544e-11
-1.12229e-11
8.59085e-12
-3.954e-11
4.21698e-11
-5.81103e-12
2.93245e-12
-4.10068e-11
4.38878e-11
5.34522e-11
2.07163e-14
5.34574e-11
6.24781e-14
5.34662e-11
1.05232e-13
5.34787e-11
1.49659e-13
5.34951e-11
1.96467e-13
5.35157e-11
2.46401e-13
5.35407e-11
3.00263e-13
5.35706e-11
3.58917e-13
5.36057e-11
4.2331e-13
5.36467e-11
4.94484e-13
5.36942e-11
5.73598e-13
5.37488e-11
6.61948e-13
5.38114e-11
7.6099e-13
5.38829e-11
8.72368e-13
5.39645e-11
9.97944e-13
5.40571e-11
1.13984e-12
5.41624e-11
1.30047e-12
5.42816e-11
1.4826e-12
5.44166e-11
1.6894e-12
5.45692e-11
1.92453e-12
5.47415e-11
2.19218e-12
5.49357e-11
2.49728e-12
5.51547e-11
2.84536e-12
5.54006e-11
3.24319e-12
5.56774e-11
3.69811e-12
5.59865e-11
4.21967e-12
5.63339e-11
4.81737e-12
5.67187e-11
5.50545e-12
5.71509e-11
6.29538e-12
5.76225e-11
7.21013e-12
5.81528e-11
8.26081e-12
5.87169e-11
9.48868e-12
5.93541e-11
1.08951e-11
6.00011e-11
1.25639e-11
6.07388e-11
1.44552e-11
6.14257e-11
1.67622e-11
6.22147e-11
1.93014e-11
6.28387e-11
2.25718e-11
6.34922e-11
2.59101e-11
3.31234e-11
3.07433e-11
3.07836e-11
-1.69159e-11
1.70021e-11
3.31679e-11
-3.09234e-11
3.07499e-11
-1.95818e-11
1.97099e-11
-3.06902e-11
3.0368e-11
-2.26578e-11
2.29753e-11
-3.00249e-11
2.94679e-11
-2.61539e-11
2.67366e-11
-2.87892e-11
2.78664e-11
-3.00126e-11
3.09884e-11
-2.68601e-11
2.52274e-11
-3.39576e-11
3.56716e-11
-2.33265e-11
2.13707e-11
-3.81245e-11
4.01233e-11
-1.90799e-11
1.6525e-11
-4.19862e-11
4.45585e-11
-1.36519e-11
1.05149e-11
-4.51277e-11
4.82706e-11
-7.14531e-12
3.6157e-12
-4.71062e-11
5.06404e-11
5.34925e-11
1.86657e-14
5.34987e-11
5.62943e-14
5.35091e-11
9.48193e-14
5.35239e-11
1.34855e-13
5.35434e-11
1.77041e-13
5.35677e-11
2.22053e-13
5.35974e-11
2.70614e-13
5.36328e-11
3.23508e-13
5.36745e-11
3.81591e-13
5.37232e-11
4.4581e-13
5.37796e-11
5.17217e-13
5.38445e-11
5.9699e-13
5.39191e-11
6.86454e-13
5.40043e-11
7.87108e-13
5.41016e-11
9.00654e-13
5.42125e-11
1.02903e-12
5.43385e-11
1.17446e-12
5.44816e-11
1.33948e-12
5.4644e-11
1.52701e-12
5.48281e-11
1.74045e-12
5.50366e-11
1.98368e-12
5.52726e-11
2.26129e-12
5.55396e-11
2.57846e-12
5.5841e-11
2.94159e-12
5.61819e-11
3.35752e-12
5.65655e-11
3.83555e-12
5.69991e-11
4.38442e-12
5.74848e-11
5.01854e-12
5.80337e-11
5.74798e-12
5.86438e-11
6.59724e-12
5.93334e-11
7.57432e-12
6.00909e-11
8.72575e-12
6.09466e-11
1.00453e-11
6.18685e-11
1.16317e-11
6.29081e-11
1.34267e-11
6.39918e-11
1.56597e-11
6.52036e-11
1.81109e-11
6.63984e-11
2.13428e-11
6.7668e-11
2.46815e-11
3.56313e-11
2.95104e-11
3.32092e-11
-1.68097e-11
1.65996e-11
3.59217e-11
-3.37776e-11
3.38431e-11
-1.99022e-11
1.98129e-11
-3.40099e-11
3.39521e-11
-2.33401e-11
2.34115e-11
-3.38321e-11
3.35742e-11
-2.73865e-11
2.76878e-11
-3.30395e-11
3.25594e-11
-3.21673e-11
3.27262e-11
-1.61552e-11
-1.94028e-11
1.55232e-11
1.96778e-11
-1.41298e-11
-2.25481e-11
1.34998e-11
2.29292e-11
-1.15111e-11
-2.52483e-11
1.06815e-11
2.59054e-11
-7.97633e-12
-2.7422e-11
6.92937e-12
2.83604e-11
-3.60395e-12
2.98252e-11
-2.86759e-11
2.41032e-12
5.35284e-11
1.63278e-14
5.35354e-11
4.9244e-14
5.35473e-11
8.29459e-14
5.35642e-11
1.17972e-13
5.35863e-11
1.54884e-13
5.36141e-11
1.94274e-13
5.36479e-11
2.36776e-13
5.36884e-11
2.8308e-13
5.3736e-11
3.33939e-13
5.37917e-11
3.90185e-13
5.38561e-11
4.52745e-13
5.39305e-11
5.22657e-13
5.40158e-11
6.01092e-13
5.41136e-11
6.89376e-13
5.42252e-11
7.89013e-13
5.43525e-11
9.01727e-13
5.44975e-11
1.02948e-12
5.46625e-11
1.17456e-12
5.485e-11
1.33955e-12
5.50629e-11
1.5275e-12
5.53048e-11
1.74189e-12
5.55791e-11
1.98688e-12
5.58906e-11
2.26712e-12
5.62436e-11
2.58848e-12
5.66444e-11
2.95712e-12
5.70978e-11
3.38174e-12
5.76129e-11
3.87017e-12
5.81942e-11
4.43621e-12
5.88555e-11
5.08874e-12
5.95985e-11
5.85181e-12
6.04454e-11
6.73193e-12
6.13903e-11
7.77551e-12
6.24692e-11
8.97556e-12
6.36605e-11
1.04293e-11
6.50194e-11
1.20853e-11
6.65001e-11
1.41581e-11
6.81677e-11
1.64734e-11
6.99637e-11
1.95118e-11
7.18895e-11
2.28007e-11
3.81764e-11
2.73807e-11
3.5792e-11
-1.61686e-11
1.56433e-11
3.87549e-11
-3.68648e-11
3.72245e-11
-1.96732e-11
1.92976e-11
-3.76987e-11
3.79715e-11
-2.34031e-11
2.31463e-11
-3.82115e-11
3.82793e-11
-2.7889e-11
2.78585e-11
-3.81693e-11
3.78302e-11
-3.31651e-11
3.35555e-11
-1.95436e-11
-2.06023e-11
1.897e-11
2.0848e-11
-1.75795e-11
-2.44468e-11
1.69439e-11
2.49188e-11
-1.47397e-11
-2.83306e-11
1.38238e-11
2.91638e-11
-1.05161e-11
-3.17419e-11
9.22312e-12
3.29914e-11
-4.84921e-12
3.54659e-11
-3.38977e-11
3.2646e-12
5.35607e-11
1.37382e-14
5.35685e-11
4.14341e-14
5.35817e-11
6.97923e-14
5.36004e-11
9.9267e-14
5.36249e-11
1.30331e-13
5.36557e-11
1.63485e-13
5.36932e-11
1.99264e-13
5.37381e-11
2.38249e-13
5.37909e-11
2.81078e-13
5.38527e-11
3.28454e-13
5.39243e-11
3.81162e-13
5.40069e-11
4.40081e-13
5.41018e-11
5.06205e-13
5.42105e-11
5.80657e-13
5.43348e-11
6.6472e-13
5.44767e-11
7.59858e-13
5.46384e-11
8.67752e-13
5.48227e-11
9.90341e-13
5.50324e-11
1.12985e-12
5.5271e-11
1.28891e-12
5.55424e-11
1.47048e-12
5.58511e-11
1.67819e-12
5.62023e-11
1.91604e-12
5.66015e-11
2.18916e-12
5.7056e-11
2.50289e-12
5.75724e-11
2.86493e-12
5.81611e-11
3.28206e-12
5.88296e-11
3.76677e-12
5.9593e-11
4.32659e-12
6.04589e-11
4.9838e-12
6.14501e-11
5.74346e-12
6.25721e-11
6.64921e-12
6.38591e-11
7.69364e-12
6.53124e-11
8.9683e-12
6.69797e-11
1.0427e-11
6.88566e-11
1.22679e-11
7.09986e-11
1.43468e-11
7.34032e-11
1.70858e-11
7.60922e-11
2.01363e-11
4.06771e-11
2.43312e-11
3.84317e-11
-1.49341e-11
1.40863e-11
4.15622e-11
-4.00891e-11
4.08039e-11
-1.87905e-11
1.80601e-11
-4.16667e-11
4.23734e-11
-2.27124e-11
2.20169e-11
-4.31013e-11
4.36812e-11
-2.76004e-11
2.70462e-11
-4.41629e-11
4.44055e-11
-3.36608e-11
3.34484e-11
-2.34526e-11
-2.14286e-11
2.30413e-11
2.15317e-11
-2.20975e-11
-2.63491e-11
2.15569e-11
2.6764e-11
-1.94625e-11
-3.18961e-11
1.84851e-11
3.28314e-11
-1.45526e-11
-3.73223e-11
1.28974e-11
3.89682e-11
-6.95964e-12
4.33406e-11
-4.10922e-11
4.71011e-12
5.35875e-11
1.09362e-14
5.35959e-11
3.29837e-14
5.36102e-11
5.55592e-14
5.36304e-11
7.90248e-14
5.3657e-11
1.03758e-13
5.36903e-11
1.30157e-13
5.37309e-11
1.5865e-13
5.37795e-11
1.89701e-13
5.38367e-11
2.23819e-13
5.39036e-11
2.61566e-13
5.39812e-11
3.03569e-13
5.40708e-11
3.50534e-13
5.41737e-11
4.03256e-13
5.42918e-11
4.62636e-13
5.44268e-11
5.29703e-13
5.4581e-11
6.05636e-13
5.4757e-11
6.91786e-13
5.49576e-11
7.89718e-13
5.51863e-11
9.01232e-13
5.54468e-11
1.02845e-12
5.57435e-11
1.17378e-12
5.60815e-11
1.34016e-12
5.64668e-11
1.53086e-12
5.69058e-11
1.75009e-12
5.74068e-11
2.0022e-12
5.79779e-11
2.29359e-12
5.86308e-11
2.62979e-12
5.93756e-11
3.02129e-12
6.02294e-11
3.4743e-12
6.12039e-11
4.00761e-12
6.23248e-11
4.62573e-12
6.36051e-11
5.36523e-12
6.50832e-11
6.22179e-12
6.67739e-11
7.27054e-12
6.87307e-11
8.48117e-12
7.09761e-11
1.00103e-11
7.35727e-11
1.17673e-11
7.65705e-11
1.40697e-11
8.00109e-11
1.67185e-11
4.30069e-11
2.03064e-11
4.1004e-11
-1.30664e-11
1.18902e-11
4.42118e-11
-4.33006e-11
4.44241e-11
-1.71459e-11
1.60058e-11
-4.57411e-11
4.69837e-11
-2.10729e-11
1.98357e-11
-4.83236e-11
4.9608e-11
-2.61598e-11
2.48913e-11
-5.08948e-11
5.20588e-11
-3.28032e-11
3.16563e-11
-2.81294e-11
-2.14435e-11
2.80272e-11
2.12551e-11
-2.80706e-11
-2.76528e-11
2.78373e-11
2.77711e-11
-2.66103e-11
-3.55096e-11
2.58983e-11
3.61805e-11
-2.12918e-11
-4.44924e-11
1.92438e-11
4.6564e-11
-1.09544e-11
5.51341e-11
-5.16696e-11
7.49987e-12
5.36082e-11
7.96515e-15
5.36172e-11
2.40231e-14
5.36323e-11
4.0466e-14
5.36538e-11
5.7558e-14
5.36819e-11
7.55742e-14
5.37173e-11
9.48056e-14
5.37604e-11
1.15564e-13
5.38119e-11
1.38189e-13
5.38727e-11
1.63051e-13
5.39437e-11
1.90562e-13
5.40261e-11
2.2118e-13
5.41212e-11
2.55421e-13
5.42306e-11
2.93866e-13
5.43561e-11
3.37178e-13
5.44997e-11
3.86108e-13
5.46638e-11
4.41524e-13
5.48512e-11
5.04416e-13
5.5065e-11
5.75937e-13
5.53089e-11
6.57412e-13
5.55869e-11
7.50402e-13
5.59041e-11
8.56694e-13
5.62658e-11
9.78463e-13
5.66786e-11
1.11812e-12
5.71498e-11
1.27882e-12
5.76885e-11
1.46377e-12
5.8304e-11
1.6778e-12
5.90093e-11
1.92501e-12
5.98165e-11
2.21337e-12
6.07444e-11
2.54748e-12
6.18088e-11
2.94175e-12
6.30372e-11
3.39952e-12
6.44505e-11
3.94892e-12
6.60892e-11
4.58698e-12
6.79833e-11
5.3713e-12
7.01901e-11
6.28085e-12
7.27579e-11
7.43427e-12
7.57634e-11
8.77177e-12
7.92937e-11
1.05279e-11
8.34415e-11
1.2584e-11
4.50063e-11
1.53641e-11
4.33609e-11
-1.05593e-11
9.07901e-12
4.65085e-11
-4.62977e-11
4.78521e-11
-1.46563e-11
1.30859e-11
-4.96541e-11
5.14957e-11
-1.83056e-11
1.64655e-11
-5.35369e-11
5.56724e-11
-2.32083e-11
2.10823e-11
-5.79685e-11
6.03586e-11
-2.99236e-11
2.75437e-11
-3.33973e-11
-2.00066e-11
3.3798e-11
1.93477e-11
-3.55652e-11
-2.73002e-11
3.59889e-11
2.67732e-11
-3.68906e-11
-3.81104e-11
3.81477e-11