/*--------------------------------*- C++ -*----------------------------------*\
| =========                 |                                                 |
| \\      /  F ield         | foam-extend: Open Source CFD                    |
|  \\    /   O peration     | Version:     4.0                                |
|   \\  /    A nd           | Web:         http://www.foam-extend.org         |
|    \\/     M anipulation  |                                                 |
\*---------------------------------------------------------------------------*/
FoamFile
{
    version     2.0;
    format      ascii;
    class       volVectorField;
    location    "0.0009";
    object      U;
}
// * * * * * * * * * * * * * * * * * * * * * * * * * * * * * * * * * * * * * //

dimensions      [0 1 -1 0 0 0 0];

internalField   nonuniform List<vector> 
28770
(
(0.00179828 5.24726e-08 0)
(0.00179807 1.58219e-07 0)
(0.00179764 2.66379e-07 0)
(0.00179698 3.78602e-07 0)
(0.00179609 4.96592e-07 0)
(0.00179496 6.22133e-07 0)
(0.00179356 7.57118e-07 0)
(0.00179188 9.03565e-07 0)
(0.00178988 1.06365e-06 0)
(0.00178755 1.23974e-06 0)
(0.00178484 1.43441e-06 0)
(0.00178171 1.65046e-06 0)
(0.00177812 1.891e-06 0)
(0.00177401 2.1594e-06 0)
(0.00176933 2.4594e-06 0)
(0.001764 2.7951e-06 0)
(0.00175795 3.17098e-06 0)
(0.00175109 3.59197e-06 0)
(0.00174332 4.06346e-06 0)
(0.00173455 4.59126e-06 0)
(0.00172463 5.18175e-06 0)
(0.00171344 5.84165e-06 0)
(0.00170084 6.57838e-06 0)
(0.00168665 7.39937e-06 0)
(0.0016707 8.31317e-06 0)
(0.00165279 9.32725e-06 0)
(0.00163271 1.04515e-05 0)
(0.00161022 1.1692e-05 0)
(0.00158506 1.30604e-05 0)
(0.001557 1.45587e-05 0)
(0.00152573 1.62015e-05 0)
(0.00149098 1.79817e-05 0)
(0.00145242 1.99192e-05 0)
(0.00140979 2.19904e-05 0)
(0.00136274 2.42237e-05 0)
(0.00131104 2.65697e-05 0)
(0.00125435 2.9068e-05 0)
(0.0011925 3.16367e-05 0)
(0.00112525 3.43232e-05 0)
(0.00105247 3.70159e-05 0)
(0.000974124 3.97575e-05 0)
(0.000890187 4.24232e-05 0)
(0.000800834 4.50325e-05 0)
(0.000706239 4.74692e-05 0)
(0.00060682 4.97235e-05 0)
(0.000502987 5.16999e-05 0)
(0.000395398 5.33698e-05 0)
(0.000284706 5.46646e-05 0)
(0.000171763 5.55558e-05 0)
(5.74051e-05 5.60072e-05 0)
(0.00179849 1.56639e-07 0)
(0.00179828 4.72309e-07 0)
(0.00179785 7.95189e-07 0)
(0.00179721 1.1302e-06 0)
(0.00179633 1.48243e-06 0)
(0.00179522 1.85722e-06 0)
(0.00179384 2.26021e-06 0)
(0.00179218 2.69744e-06 0)
(0.00179021 3.17541e-06 0)
(0.00178791 3.70118e-06 0)
(0.00178524 4.28244e-06 0)
(0.00178216 4.92761e-06 0)
(0.00177862 5.64591e-06 0)
(0.00177457 6.4475e-06 0)
(0.00176995 7.34353e-06 0)
(0.0017647 8.34625e-06 0)
(0.00175873 9.46914e-06 0)
(0.00175196 1.07269e-05 0)
(0.0017443 1.21357e-05 0)
(0.00173564 1.37129e-05 0)
(0.00172585 1.54777e-05 0)
(0.00171481 1.74503e-05 0)
(0.00170237 1.96529e-05 0)
(0.00168835 2.21078e-05 0)
(0.00167259 2.48408e-05 0)
(0.00165489 2.78742e-05 0)
(0.00163502 3.12379e-05 0)
(0.00161277 3.49501e-05 0)
(0.00158787 3.90461e-05 0)
(0.00156008 4.35319e-05 0)
(0.00152908 4.84512e-05 0)
(0.00149462 5.37839e-05 0)
(0.00145634 5.95879e-05 0)
(0.00141401 6.57972e-05 0)
(0.00136723 7.24893e-05 0)
(0.00131578 7.9532e-05 0)
(0.00125931 8.70209e-05 0)
(0.00119765 9.47472e-05 0)
(0.00113051 0.000102807 0)
(0.0010578 0.000110928 0)
(0.000979419 0.00011917 0)
(0.000895352 0.00012723 0)
(0.000805775 0.000135102 0)
(0.000710832 0.000142486 0)
(0.000610962 0.00014931 0)
(0.000506557 0.00015531 0)
(0.0003983 0.000160377 0)
(0.000286846 0.000164312 0)
(0.000173077 0.00016702 0)
(5.78471e-05 0.000168393 0)
(0.0017989 2.58496e-07 0)
(0.00179869 7.79439e-07 0)
(0.00179828 1.31229e-06 0)
(0.00179765 1.86518e-06 0)
(0.00179681 2.44651e-06 0)
(0.00179572 3.06509e-06 0)
(0.00179438 3.73026e-06 0)
(0.00179277 4.45199e-06 0)
(0.00179087 5.24104e-06 0)
(0.00178863 6.10908e-06 0)
(0.00178604 7.06882e-06 0)
(0.00178305 8.13421e-06 0)
(0.00177961 9.32052e-06 0)
(0.00177567 1.06446e-05 0)
(0.00177119 1.21248e-05 0)
(0.00176608 1.37816e-05 0)
(0.00176028 1.56374e-05 0)
(0.0017537 1.77164e-05 0)
(0.00174625 2.00457e-05 0)
(0.00173782 2.26543e-05 0)
(0.00172829 2.5574e-05 0)
(0.00171753 2.88384e-05 0)
(0.0017054 3.2485e-05 0)
(0.00169173 3.65511e-05 0)
(0.00167635 4.10799e-05 0)
(0.00165906 4.61093e-05 0)
(0.00163963 5.16899e-05 0)
(0.00161786 5.78523e-05 0)
(0.00159347 6.46581e-05 0)
(0.00156621 7.21158e-05 0)
(0.00153577 8.03051e-05 0)
(0.00150189 8.91864e-05 0)
(0.00146418 9.88717e-05 0)
(0.00142243 0.000109233 0)
(0.00137619 0.000120433 0)
(0.00132527 0.000132208 0)
(0.00126925 0.000144785 0)
(0.00120796 0.000157728 0)
(0.00114109 0.00017131 0)
(0.0010685 0.000184944 0)
(0.000990087 0.00019887 0)
(0.000905786 0.000212438 0)
(0.000815773 0.000225756 0)
(0.000720151 0.000238223 0)
(0.000619376 0.000249782 0)
(0.000513823 0.000259938 0)
(0.000404212 0.000268534 0)
(0.000291211 0.000275208 0)
(0.000175759 0.000279807 0)
(5.87494e-05 0.000282138 0)
(0.0017995 3.56544e-07 0)
(0.00179931 1.07509e-06 0)
(0.00179891 1.81008e-06 0)
(0.00179832 2.57273e-06 0)
(0.00179751 3.37466e-06 0)
(0.00179647 4.22805e-06 0)
(0.0017952 5.14579e-06 0)
(0.00179366 6.14167e-06 0)
(0.00179184 7.23056e-06 0)
(0.0017897 8.42861e-06 0)
(0.00178722 9.75343e-06 0)
(0.00178436 1.12243e-05 0)
(0.00178108 1.28625e-05 0)
(0.00177731 1.46912e-05 0)
(0.00177302 1.67361e-05 0)
(0.00176814 1.90256e-05 0)
(0.00176258 2.15906e-05 0)
(0.00175628 2.44653e-05 0)
(0.00174914 2.76872e-05 0)
(0.00174105 3.12967e-05 0)
(0.00173191 3.53385e-05 0)
(0.00172158 3.98598e-05 0)
(0.00170992 4.49133e-05 0)
(0.00169677 5.05512e-05 0)
(0.00168195 5.68354e-05 0)
(0.00166528 6.38188e-05 0)
(0.00164652 7.15744e-05 0)
(0.00162547 8.01455e-05 0)
(0.00160184 8.96217e-05 0)
(0.0015754 0.000100015 0)
(0.00154579 0.000111444 0)
(0.0015128 0.00012385 0)
(0.00147597 0.000137402 0)
(0.00143512 0.000151917 0)
(0.00138972 0.000167635 0)
(0.00133963 0.00018419 0)
(0.0012843 0.000201896 0)
(0.00122362 0.000220174 0)
(0.00115716 0.000239367 0)
(0.00108478 0.000258718 0)
(0.00100634 0.000278487 0)
(0.000921678 0.000297848 0)
(0.000831023 0.000316861 0)
(0.000734358 0.000334739 0)
(0.000632226 0.00035133 0)
(0.000524918 0.000365954 0)
(0.000413252 0.000378344 0)
(0.000297885 0.000387985 0)
(0.000179863 0.000394632 0)
(6.01296e-05 0.000398005 0)
(0.0018003 4.49321e-07 0)
(0.00180011 1.35485e-06 0)
(0.00179975 2.28113e-06 0)
(0.00179919 3.24232e-06 0)
(0.00179843 4.25311e-06 0)
(0.00179746 5.32884e-06 0)
(0.00179626 6.48582e-06 0)
(0.00179482 7.74148e-06 0)
(0.00179311 9.11463e-06 0)
(0.0017911 1.06257e-05 0)
(0.00178878 1.2297e-05 0)
(0.00178609 1.41529e-05 0)
(0.001783 1.62204e-05 0)
(0.00177947 1.85291e-05 0)
(0.00177543 2.11115e-05 0)
(0.00177083 2.40037e-05 0)
(0.00176561 2.72452e-05 0)
(0.00175967 3.08796e-05 0)
(0.00175294 3.49549e-05 0)
(0.00174531 3.95229e-05 0)
(0.00173667 4.46411e-05 0)
(0.00172691 5.03702e-05 0)
(0.00171587 5.67785e-05 0)
(0.00170341 6.39338e-05 0)
(0.00168934 7.19169e-05 0)
(0.00167349 8.07968e-05 0)
(0.00165562 9.06714e-05 0)
(0.00163553 0.000101596 0)
(0.00161292 0.000113695 0)
(0.00158758 0.00012698 0)
(0.0015591 0.000141624 0)
(0.0015273 0.000157534 0)
(0.00149166 0.000174979 0)
(0.00145203 0.00019366 0)
(0.00140779 0.000214009 0)
(0.00135882 0.000235397 0)
(0.00130449 0.000258476 0)
(0.00124465 0.000282187 0)
(0.00117883 0.000307381 0)
(0.0011068 0.000332606 0)
(0.0010284 0.000358706 0)
(0.000943361 0.000384105 0)
(0.000851895 0.000409294 0)
(0.000753902 0.000432902 0)
(0.000649941 0.000454957 0)
(0.000540274 0.000474385 0)
(0.000425784 0.000490913 0)
(0.00030716 0.000503777 0)
(0.00018557 0.000512668 0)
(6.20518e-05 0.00051718 0)
(0.00180127 5.35451e-07 0)
(0.0018011 1.61457e-06 0)
(0.00180076 2.71847e-06 0)
(0.00180025 3.86405e-06 0)
(0.00179955 5.06885e-06 0)
(0.00179866 6.35121e-06 0)
(0.00179756 7.73061e-06 0)
(0.00179623 9.22791e-06 0)
(0.00179466 1.08656e-05 0)
(0.00179282 1.26682e-05 0)
(0.00179068 1.46624e-05 0)
(0.0017882 1.68775e-05 0)
(0.00178536 1.93458e-05 0)
(0.0017821 2.21029e-05 0)
(0.00177838 2.51882e-05 0)
(0.00177414 2.8645e-05 0)
(0.00176932 3.25211e-05 0)
(0.00176383 3.68693e-05 0)
(0.0017576 4.17477e-05 0)
(0.00175054 4.72195e-05 0)
(0.00174253 5.33548e-05 0)
(0.00173346 6.0228e-05 0)
(0.0017232 6.79229e-05 0)
(0.00171159 7.65229e-05 0)
(0.00169846 8.61291e-05 0)
(0.00168364 9.68266e-05 0)
(0.00166689 0.00010874 0)
(0.00164801 0.000121937 0)
(0.00162669 0.00013658 0)
(0.00160275 0.000152682 0)
(0.00157571 0.000170473 0)
(0.00154546 0.000189835 0)
(0.00151135 0.00021112 0)
(0.00147334 0.000233969 0)
(0.00143059 0.000258919 0)
(0.00138317 0.000285237 0)
(0.00133012 0.000313685 0)
(0.00127151 0.000343082 0)
(0.00120653 0.000374322 0)
(0.00113504 0.000405872 0)
(0.00105676 0.000438478 0)
(0.000971211 0.000470534 0)
(0.000878803 0.000502317 0)
(0.00077907 0.000532359 0)
(0.000672844 0.000560451 0)
(0.000560124 0.000585345 0)
(0.000442032 0.000606553 0)
(0.000319187 0.000623126 0)
(0.000192986 0.00063459 0)
(6.45468e-05 0.000640419 0)
(0.0018024 6.1365e-07 0)
(0.00180225 1.85039e-06 0)
(0.00180195 3.11558e-06 0)
(0.00180149 4.42865e-06 0)
(0.00180086 5.80974e-06 0)
(0.00180006 7.27994e-06 0)
(0.00179908 8.86165e-06 0)
(0.00179789 1.05789e-05 0)
(0.00179648 1.24575e-05 0)
(0.00179482 1.45258e-05 0)
(0.0017929 1.68146e-05 0)
(0.00179068 1.93578e-05 0)
(0.00178812 2.21927e-05 0)
(0.00178519 2.53605e-05 0)
(0.00178184 2.89069e-05 0)
(0.00177801 3.28822e-05 0)
(0.00177366 3.73422e-05 0)
(0.00176871 4.23485e-05 0)
(0.00176307 4.79691e-05 0)
(0.00175668 5.42782e-05 0)
(0.00174941 6.13585e-05 0)
(0.00174117 6.92977e-05 0)
(0.00173183 7.81959e-05 0)
(0.00172123 8.81524e-05 0)
(0.00170922 9.92894e-05 0)
(0.00169563 0.000111709 0)
(0.00168021 0.000125565 0)
(0.0016628 0.000140939 0)
(0.00164303 0.000158042 0)
(0.00162077 0.000176877 0)
(0.00159548 0.000197768 0)
(0.00156711 0.000220523 0)
(0.00153488 0.000245692 0)
(0.00149883 0.00027268 0)
(0.00145799 0.000302454 0)
(0.00141244 0.000333699 0)
(0.00136113 0.000368035 0)
(0.00130402 0.000403119 0)
(0.00124031 0.000441287 0)
(0.00116962 0.000479202 0)
(0.00109172 0.000519413 0)
(0.00100587 0.000558363 0)
(0.000912432 0.000597694 0)
(0.000810825 0.000634625 0)
(0.000701824 0.00066955 0)
(0.000585417 0.000700469 0)
(0.000462778 0.000726985 0)
(0.000334613 0.000747723 0)
(0.000202503 0.000762121 0)
(6.77591e-05 0.000769444 0)
(0.00180368 6.82731e-07 0)
(0.00180355 2.05872e-06 0)
(0.00180329 3.46644e-06 0)
(0.00180289 4.92756e-06 0)
(0.00180234 6.46454e-06 0)
(0.00180165 8.10095e-06 0)
(0.00180079 9.86181e-06 0)
(0.00179975 1.17739e-05 0)
(0.00179852 1.38663e-05 0)
(0.00179708 1.61706e-05 0)
(0.00179541 1.87213e-05 0)
(0.00179347 2.15565e-05 0)
(0.00179124 2.47181e-05 0)
(0.00178868 2.82527e-05 0)
(0.00178575 3.22116e-05 0)
(0.0017824 3.66517e-05 0)
(0.00177858 4.16364e-05 0)
(0.00177423 4.72354e-05 0)
(0.00176928 5.35263e-05 0)
(0.00176365 6.05939e-05 0)
(0.00175724 6.85331e-05 0)
(0.00174995 7.7445e-05 0)
(0.00174166 8.74455e-05 0)
(0.00173225 9.86501e-05 0)
(0.00172153 0.000111202 0)
(0.00170937 0.000125222 0)
(0.00169551 0.000140894 0)
(0.00167981 0.000158316 0)
(0.00166188 0.000177743 0)
(0.00164165 0.000199187 0)
(0.00161845 0.000223038 0)
(0.00159239 0.000249093 0)
(0.00156242 0.000277998 0)
(0.00152892 0.000309123 0)
(0.00149034 0.000343531 0)
(0.00144738 0.000379899 0)
(0.00139809 0.000419837 0)
(0.00134323 0.00046115 0)
(0.00128103 0.000505859 0)
(0.00121153 0.000551115 0)
(0.00113428 0.000598695 0)
(0.00104786 0.00064581 0)
(0.000953477 0.000693151 0)
(0.000849429 0.000738331 0)
(0.000737316 0.000781022 0)
(0.000616363 0.000819215 0)
(0.000488301 0.000852017 0)
(0.000353591 0.000877839 0)
(0.000214255 0.000895788 0)
(7.17171e-05 0.000904948 0)
(0.00180509 7.41648e-07 0)
(0.00180498 2.23641e-06 0)
(0.00180476 3.76573e-06 0)
(0.00180442 5.35322e-06 0)
(0.00180397 7.02335e-06 0)
(0.00180339 8.80182e-06 0)
(0.00180267 1.07159e-05 0)
(0.00180181 1.2795e-05 0)
(0.00180078 1.50706e-05 0)
(0.00179957 1.75775e-05 0)
(0.00179817 2.03534e-05 0)
(0.00179655 2.34401e-05 0)
(0.00179468 2.68838e-05 0)
(0.00179253 3.07355e-05 0)
(0.00179006 3.5052e-05 0)
(0.00178724 3.98962e-05 0)
(0.00178402 4.53381e-05 0)
(0.00178035 5.14555e-05 0)
(0.00177615 5.83347e-05 0)
(0.00177137 6.60707e-05 0)
(0.00176591 7.47703e-05 0)
(0.00175969 8.45473e-05 0)
(0.00175259 9.5534e-05 0)
(0.0017445 0.000107862 0)
(0.00173524 0.000121697 0)
(0.0017247 0.000137177 0)
(0.00171261 0.000154522 0)
(0.00169888 0.000173843 0)
(0.00168305 0.00019546 0)
(0.00166512 0.000219366 0)
(0.00164435 0.000246094 0)
(0.00162092 0.000275312 0)
(0.00159366 0.000308021 0)
(0.001563 0.000343132 0)
(0.00152729 0.000382598 0)
(0.00148716 0.000423837 0)
(0.00144068 0.000470482 0)
(0.00138825 0.000517527 0)
(0.0013284 0.00057084 0)
(0.00126052 0.000622739 0)
(0.00118444 0.000680301 0)
(0.00109836 0.000735389 0)
(0.00100302 0.000792531 0)
(0.000896864 0.000846393 0)
(0.000781022 0.000898173 0)
(0.000654931 0.000944459 0)
(0.000520179 0.00098458 0)
(0.000377472 0.00101623 0)
(0.000229047 0.00103834 0)
(7.67281e-05 0.00104964 0)
(0.0018066 7.89499e-07 0)
(0.00180651 2.38073e-06 0)
(0.00180634 4.00886e-06 0)
(0.00180608 5.69908e-06 0)
(0.00180572 7.47756e-06 0)
(0.00180526 9.37174e-06 0)
(0.0018047 1.14108e-05 0)
(0.00180402 1.36262e-05 0)
(0.00180321 1.60518e-05 0)
(0.00180226 1.87247e-05 0)
(0.00180115 2.16855e-05 0)
(0.00179986 2.49793e-05 0)
(0.00179838 2.86557e-05 0)
(0.00179668 3.27699e-05 0)
(0.00179472 3.73832e-05 0)
(0.00179247 4.2564e-05 0)
(0.0017899 4.83884e-05 0)
(0.00178696 5.49411e-05 0)
(0.00178359 6.23167e-05 0)
(0.00177974 7.06195e-05 0)
(0.00177533 7.99674e-05 0)
(0.00177028 9.04866e-05 0)
(0.00176449 0.000102325 0)
(0.00175786 0.000115629 0)
(0.00175023 0.000130587 0)
(0.00174151 0.000147359 0)
(0.00173141 0.000166193 0)
(0.0017199 0.000187225 0)
(0.00170646 0.00021082 0)
(0.00169123 0.000236998 0)
(0.00167323 0.000266352 0)
(0.00165302 0.000298593 0)
(0.00162882 0.000334759 0)
(0.00160194 0.000373889 0)
(0.00156936 0.000417828 0)
(0.00153344 0.000464401 0)
(0.00148983 0.000516649 0)
(0.0014415 0.000570716 0)
(0.00138405 0.000630763 0)
(0.00131872 0.000691643 0)
(0.00124458 0.000757176 0)
(0.00115775 0.00082294 0)
(0.00106217 0.000890093 0)
(0.000952871 0.000955229 0)
(0.000833341 0.00101759 0)
(0.00070097 0.00107424 0)
(0.00055858 0.00112343 0)
(0.000406232 0.00116263 0)
(0.000246964 0.00119006 0)
(8.27785e-05 0.00120415 0)
(0.00180819 8.25529e-07 0)
(0.00180813 2.48942e-06 0)
(0.00180801 4.19199e-06 0)
(0.00180782 5.95971e-06 0)
(0.00180757 7.81999e-06 0)
(0.00180724 9.80169e-06 0)
(0.00180684 1.19355e-05 0)
(0.00180635 1.42543e-05 0)
(0.00180577 1.6794e-05 0)
(0.00180509 1.95937e-05 0)
(0.0018043 2.26962e-05 0)
(0.00180337 2.61491e-05 0)
(0.0018023 3.00049e-05 0)
(0.00180107 3.43224e-05 0)
(0.00179965 3.91667e-05 0)
(0.00179802 4.46107e-05 0)
(0.00179614 5.07358e-05 0)
(0.00179399 5.76329e-05 0)
(0.0017915 6.54039e-05 0)
(0.00178865 7.41615e-05 0)
(0.00178536 8.40338e-05 0)
(0.00178158 9.51587e-05 0)
(0.00177721 0.000107698 0)
(0.00177217 0.000121816 0)
(0.00176631 0.000137721 0)
(0.00175957 0.000155592 0)
(0.00175165 0.000175716 0)
(0.00174257 0.000198243 0)
(0.00173178 0.000223615 0)
(0.00171949 0.000251828 0)
(0.00170466 0.000283666 0)
(0.0016879 0.000318649 0)
(0.00166738 0.000358367 0)
(0.00164434 0.000401094 0)
(0.00161592 0.000450262 0)
(0.00158392 0.000501292 0)
(0.00154479 0.000561433 0)
(0.00149999 0.000620571 0)
(0.00144681 0.0006923 0)
(0.0013843 0.000758871 0)
(0.001313 0.000839187 0)
(0.00122851 0.000913983 0)
(0.00113256 0.000994203 0)
(0.0010217 0.00107071 0)
(0.000897552 0.00114561 0)
(0.000758573 0.00121385 0)
(0.00060673 0.00127374 0)
(0.000442709 0.0013217 0)
(0.000269699 0.00135546 0)
(9.05206e-05 0.00137285 0)
(0.00180984 8.49167e-07 0)
(0.00180981 2.56074e-06 0)
(0.00180974 4.31223e-06 0)
(0.00180963 6.13093e-06 0)
(0.00180948 8.04517e-06 0)
(0.00180929 1.00848e-05 0)
(0.00180906 1.22814e-05 0)
(0.00180877 1.46692e-05 0)
(0.00180844 1.72853e-05 0)
(0.00180804 2.01702e-05 0)
(0.00180757 2.33685e-05 0)
(0.00180702 2.69297e-05 0)
(0.00180638 3.09085e-05 0)
(0.00180565 3.53663e-05 0)
(0.00180479 4.03712e-05 0)
(0.0018038 4.59999e-05 0)
(0.00180265 5.2338e-05 0)
(0.00180132 5.94815e-05 0)
(0.00179978 6.75384e-05 0)
(0.00179798 7.66289e-05 0)
(0.00179589 8.68896e-05 0)
(0.00179345 9.84694e-05 0)
(0.00179059 0.000111543 0)
(0.00178726 0.000126289 0)
(0.0017833 0.000142936 0)
(0.00177871 0.000161685 0)
(0.00177317 0.000182849 0)
(0.0017668 0.000206617 0)
(0.00175892 0.000233456 0)
(0.00175003 0.000263439 0)
(0.00173866 0.00029735 0)
(0.00172617 0.000334886 0)
(0.00170955 0.0003775 0)
(0.00169192 0.000423954 0)
(0.00166747 0.000477051 0)
(0.00164229 0.000533594 0)
(0.00160662 0.000598761 0)
(0.00156964 0.000666083 0)
(0.00151947 0.000743691 0)
(0.00146254 0.000822001 0)
(0.00139646 0.000909053 0)
(0.00130954 0.000998711 0)
(0.00121563 0.00109182 0)
(0.00110112 0.00118444 0)
(0.000973498 0.00127454 0)
(0.000826426 0.00135826 0)
(0.000664181 0.00143217 0)
(0.000486248 0.00149212 0)
(0.000297042 0.00153451 0)
(9.98053e-05 0.00155648 0)
(0.00181153 8.60017e-07 0)
(0.00181152 2.5935e-06 0)
(0.0018115 4.36753e-06 0)
(0.00181148 6.20986e-06 0)
(0.00181144 8.14928e-06 0)
(0.00181139 1.02161e-05 0)
(0.00181133 1.24426e-05 0)
(0.00181125 1.48637e-05 0)
(0.00181116 1.7517e-05 0)
(0.00181105 2.0444e-05 0)
(0.00181091 2.36904e-05 0)
(0.00181076 2.73069e-05 0)
(0.00181056 3.13496e-05 0)
(0.00181034 3.58817e-05 0)
(0.00181006 4.09735e-05 0)
(0.00180974 4.67041e-05 0)
(0.00180934 5.31625e-05 0)
(0.00180887 6.04485e-05 0)
(0.00180829 6.8675e-05 0)
(0.0018076 7.79679e-05 0)
(0.00180675 8.84713e-05 0)
(0.00180572 0.000100343 0)
(0.00180445 0.000113769 0)
(0.00180291 0.000128943 0)
(0.00180097 0.000146109 0)
(0.00179865 0.000165491 0)
(0.00179564 0.00018743 0)
(0.00179213 0.000212143 0)
(0.00178742 0.000240158 0)
(0.00178206 0.000271552 0)
(0.00177462 0.000307285 0)
(0.00176638 0.000346897 0)
(0.0017546 0.000392436 0)
(0.00174182 0.0004418 0)
(0.00172328 0.00049987 0)
(0.00170309 0.00056 0)
(0.00167452 0.000634279 0)
(0.0016419 0.00070467 0)
(0.00159948 0.000799577 0)
(0.00154622 0.000878182 0)
(0.00148603 0.000991455 0)
(0.00140747 0.0010911 0)
(0.00131442 0.00120016 0)
(0.00120062 0.00130842 0)
(0.00106775 0.00141595 0)
(0.000912924 0.00151748 0)
(0.000737797 0.0016078 0)
(0.000542916 0.00168185 0)
(0.00033272 0.00173452 0)
(0.000112031 0.001762 0)
(0.00181322 8.57876e-07 0)
(0.00181324 2.58708e-06 0)
(0.00181328 4.35687e-06 0)
(0.00181333 6.195e-06 0)
(0.0018134 8.13031e-06 0)
(0.0018135 1.01932e-05 0)
(0.00181361 1.2416e-05 0)
(0.00181374 1.48337e-05 0)
(0.0018139 1.74842e-05 0)
(0.00181408 2.04093e-05 0)
(0.00181429 2.36549e-05 0)
(0.00181452 2.72722e-05 0)
(0.00181478 3.13181e-05 0)
(0.00181507 3.58564e-05 0)
(0.00181539 4.09587e-05 0)
(0.00181574 4.67055e-05 0)
(0.00181611 5.31876e-05 0)
(0.00181651 6.05075e-05 0)
(0.00181693 6.8781e-05 0)
(0.00181737 7.81387e-05 0)
(0.0018178 8.87295e-05 0)
(0.00181822 0.000100719 0)
(0.00181859 0.000114301 0)
(0.00181893 0.000129683 0)
(0.00181909 0.00014712 0)
(0.00181917 0.000166862 0)
(0.00181885 0.000189262 0)
(0.00181843 0.000214592 0)
(0.0018171 0.000243375 0)
(0.00181575 0.00027582 0)
(0.00181243 0.000312802 0)
(0.00180955 0.000354208 0)
(0.00180248 0.000401705 0)
(0.00179712 0.000454166 0)
(0.00178321 0.00051511 0)
(0.0017739 0.000580689 0)
(0.00174828 0.000658639 0)
(0.00173149 0.000738768 0)
(0.00168937 0.000836803 0)
(0.00165042 0.000932262 0)
(0.00160495 0.00104358 0)
(0.00151389 0.00116504 0)
(0.00142842 0.00129287 0)
(0.00131242 0.00142436 0)
(0.00117821 0.00155492 0)
(0.00101428 0.00168001 0)
(0.000825122 0.00179346 0)
(0.000610334 0.00188788 0)
(0.000375522 0.00195577 0)
(0.000126707 0.00199139 0)
(0.0018149 8.42734e-07 0)
(0.00181495 2.54146e-06 0)
(0.00181504 4.28017e-06 0)
(0.00181517 6.08624e-06 0)
(0.00181535 7.98809e-06 0)
(0.00181558 1.00157e-05 0)
(0.00181587 1.22011e-05 0)
(0.00181621 1.45787e-05 0)
(0.00181662 1.71862e-05 0)
(0.00181709 2.00649e-05 0)
(0.00181763 2.32603e-05 0)
(0.00181826 2.68234e-05 0)
(0.00181897 3.08108e-05 0)
(0.00181978 3.52862e-05 0)
(0.00182069 4.03211e-05 0)
(0.00182171 4.59964e-05 0)
(0.00182286 5.24033e-05 0)
(0.00182414 5.96451e-05 0)
(0.00182556 6.78393e-05 0)
(0.00182713 7.71187e-05 0)
(0.00182886 8.76352e-05 0)
(0.00183076 9.95596e-05 0)
(0.00183281 0.00011309 0)
(0.00183504 0.000128446 0)
(0.00183737 0.00014589 0)
(0.00183991 0.000165695 0)
(0.00184238 0.000188223 0)
(0.00184511 0.000213791 0)
(0.00184737 0.000242933 0)
(0.00185004 0.000275945 0)
(0.00185137 0.000313717 0)
(0.00185343 0.000356262 0)
(0.00185247 0.000405366 0)
(0.00185286 0.000459851 0)
(0.00184716 0.00052414 0)
(0.00184363 0.000592621 0)
(0.0018293 0.000678647 0)
(0.00181635 0.00075971 0)
(0.00178894 0.000883502 0)
(0.00174869 0.000957832 0)
(0.00171396 0.00112959 0)
(0.00165156 0.00126469 0)
(0.00156833 0.00140037 0)
(0.0014572 0.0015549 0)
(0.00131807 0.00171002 0)
(0.00114649 0.0018648 0)
(0.000941335 0.00200491 0)
(0.000701846 0.00212323 0)
(0.000434075 0.00220907 0)
(0.000146908 0.0022546 0)
(0.00181654 8.14783e-07 0)
(0.00181661 2.4572e-06 0)
(0.00181675 4.1384e-06 0)
(0.00181696 5.88492e-06 0)
(0.00181725 7.72436e-06 0)
(0.00181762 9.68583e-06 0)
(0.00181808 1.18004e-05 0)
(0.00181862 1.41017e-05 0)
(0.00181927 1.66262e-05 0)
(0.00182003 1.94143e-05 0)
(0.0018209 2.25105e-05 0)
(0.00182191 2.59646e-05 0)
(0.00182307 2.9832e-05 0)
(0.00182438 3.41752e-05 0)
(0.00182588 3.90647e-05 0)
(0.00182757 4.45802e-05 0)
(0.00182948 5.08119e-05 0)
(0.00183163 5.78624e-05 0)
(0.00183404 6.58486e-05 0)
(0.00183675 7.49034e-05 0)
(0.00183977 8.51791e-05 0)
(0.00184315 9.6849e-05 0)
(0.00184688 0.000110113 0)
(0.00185104 0.000125198 0)
(0.00185556 0.000142368 0)
(0.00186063 0.000161919 0)
(0.00186595 0.000184209 0)
(0.001872 0.000209612 0)
(0.00187796 0.000238633 0)
(0.00188506 0.000271717 0)
(0.00189108 0.000309629 0)
(0.00189929 0.00035278 0)
(0.00190391 0.00040252 0)
(0.00191342 0.00045876 0)
(0.00191321 0.000524487 0)
(0.00192519 0.000597248 0)
(0.00191189 0.000685621 0)
(0.00193208 0.00077711 0)
(0.00188336 0.000902464 0)
(0.00193928 0.0010053 0)
(0.00189317 0.001128 0)
(0.00173174 0.001126 0)
(0.00168826 0.00129232 0)
(0.00160602 0.00147562 0)
(0.00148737 0.00166647 0)
(0.00132543 0.00186141 0)
(0.00111701 0.00205279 0)
(0.000865079 0.0022272 0)
(0.000574687 0.00236846 0)
(0.000255228 0.00246345 0)
(0.00181811 7.74406e-07 0)
(0.0018182 2.33547e-06 0)
(0.00181839 3.9335e-06 0)
(0.00181868 5.5938e-06 0)
(0.00181907 7.34269e-06 0)
(0.00181958 9.20796e-06 0)
(0.00182019 1.12193e-05 0)
(0.00182094 1.34088e-05 0)
(0.00182182 1.58115e-05 0)
(0.00182285 1.84659e-05 0)
(0.00182405 2.14149e-05 0)
(0.00182543 2.47061e-05 0)
(0.00182701 2.83931e-05 0)
(0.00182882 3.2536e-05 0)
(0.00183088 3.72031e-05 0)
(0.00183321 4.24714e-05 0)
(0.00183586 4.84286e-05 0)
(0.00183886 5.51748e-05 0)
(0.00184224 6.28241e-05 0)
(0.00184606 7.15072e-05 0)
(0.00185035 8.13736e-05 0)
(0.00185518 9.25961e-05 0)
(0.00186056 0.000105372 0)
(0.00186663 0.000119931 0)
(0.00187333 0.000136535 0)
(0.00188088 0.000155495 0)
(0.00188908 0.000177156 0)
(0.0018984 0.000201949 0)
(0.00190819 0.000230319 0)
(0.00191955 0.00026289 0)
(0.00193075 0.000300195 0)
(0.00194439 0.00034322 0)
(0.00195624 0.000392426 0)
(0.00197228 0.00044967 0)
(0.00198277 0.000514533 0)
(0.00200141 0.000591606 0)
(0.00200541 0.000675909 0)
(0.00202868 0.000782661 0)
(0.00201238 0.000885105 0)
(0.00205463 0.00104623 0)
(0.00209936 0.00114702 0)
(0.00189221 0.00122773 0)
(0.001863 0.00141746 0)
(0.00179536 0.00162735 0)
(0.00168531 0.00185144 0)
(0.00152596 0.00208046 0)
(0.00129922 0.00231719 0)
(0.0010179 0.00253445 0)
(0.000682445 0.0027092 0)
(0.000303914 0.0028212 0)
(0.00181958 7.22192e-07 0)
(0.0018197 2.17803e-06 0)
(0.00181994 3.66844e-06 0)
(0.0018203 5.21707e-06 0)
(0.00182079 6.84858e-06 0)
(0.00182142 8.58897e-06 0)
(0.00182219 1.0466e-05 0)
(0.00182312 1.25099e-05 0)
(0.00182422 1.47534e-05 0)
(0.00182552 1.72329e-05 0)
(0.00182702 1.99885e-05 0)
(0.00182875 2.30652e-05 0)
(0.00183073 2.65135e-05 0)
(0.00183301 3.03903e-05 0)
(0.0018356 3.47603e-05 0)
(0.00183856 3.96965e-05 0)
(0.00184192 4.52826e-05 0)
(0.00184572 5.1614e-05 0)
(0.00185003 5.88e-05 0)
(0.00185491 6.69663e-05 0)
(0.00186042 7.62571e-05 0)
(0.00186665 8.68404e-05 0)
(0.00187364 9.89071e-05 0)
(0.00188156 0.000112686 0)
(0.00189039 0.000128429 0)
(0.0019004 0.000146455 0)
(0.00191143 0.000167096 0)
(0.00192406 0.000190811 0)
(0.00193763 0.00021802 0)
(0.00195348 0.000249424 0)
(0.00196973 0.000285508 0)
(0.00198959 0.000327422 0)
(0.00200814 0.000375579 0)
(0.00203298 0.000432053 0)
(0.00205219 0.000496662 0)
(0.0020832 0.000573702 0)
(0.00209896 0.000660289 0)
(0.00213692 0.000767575 0)
(0.00214144 0.000880326 0)
(0.00218142 0.00103741 0)
(0.00229213 0.00114559 0)
(0.00207606 0.00129324 0)
(0.00206793 0.00150623 0)
(0.00202121 0.00174859 0)
(0.0019288 0.00201474 0)
(0.00179178 0.00227454 0)
(0.00153294 0.00258588 0)
(0.001221 0.00287203 0)
(0.000829774 0.0031036 0)
(0.000370945 0.00325032 0)
(0.00182095 6.58898e-07 0)
(0.00182109 1.98717e-06 0)
(0.00182137 3.34706e-06 0)
(0.0018218 4.76022e-06 0)
(0.00182238 6.24919e-06 0)
(0.00182312 7.83779e-06 0)
(0.00182403 9.5515e-06 0)
(0.00182514 1.14179e-05 0)
(0.00182644 1.34672e-05 0)
(0.00182798 1.57327e-05 0)
(0.00182976 1.82514e-05 0)
(0.00183182 2.10647e-05 0)
(0.00183418 2.42192e-05 0)
(0.00183689 2.77675e-05 0)
(0.00183999 3.17693e-05 0)
(0.00184352 3.62927e-05 0)
(0.00184753 4.14151e-05 0)
(0.0018521 4.72257e-05 0)
(0.00185728 5.38264e-05 0)
(0.00186315 6.13356e-05 0)
(0.00186981 6.98884e-05 0)
(0.00187735 7.96446e-05 0)
(0.00188587 9.07839e-05 0)
(0.00189553 0.000103527 0)
(0.00190639 0.000118112 0)
(0.00191874 0.000134856 0)
(0.00193251 0.000154062 0)
(0.00194827 0.000176219 0)
(0.00196558 0.000201672 0)
(0.00198564 0.000231251 0)
(0.00200712 0.000265212 0)
(0.00203258 0.000305156 0)
(0.0020587 0.000350758 0)
(0.00209084 0.000405541 0)
(0.00212146 0.000467015 0)
(0.00216163 0.000543778 0)
(0.00219525 0.000626471 0)
(0.00224413 0.00073721 0)
(0.00227659 0.000847015 0)
(0.00233057 0.00101214 0)
(0.00247361 0.00111995 0)
(0.00227959 0.00131887 0)
(0.00230232 0.00155487 0)
(0.00228597 0.00183524 0)
(0.00221316 0.00217194 0)
(0.00211712 0.00260154 0)
(0.00186321 0.00299454 0)
(0.00149079 0.00337332 0)
(0.000990884 0.00369157 0)
(0.000382927 0.00388631 0)
(0.00182217 5.85483e-07 0)
(0.00182233 1.76578e-06 0)
(0.00182265 2.97423e-06 0)
(0.00182314 4.23013e-06 0)
(0.0018238 5.55356e-06 0)
(0.00182465 6.96575e-06 0)
(0.0018257 8.48944e-06 0)
(0.00182695 1.01493e-05 0)
(0.00182845 1.19722e-05 0)
(0.0018302 1.39879e-05 0)
(0.00183224 1.62297e-05 0)
(0.00183459 1.87346e-05 0)
(0.0018373 2.15444e-05 0)
(0.0018404 2.47064e-05 0)
(0.00184395 2.82743e-05 0)
(0.001848 3.23095e-05 0)
(0.00185262 3.68821e-05 0)
(0.00185788 4.20729e-05 0)
(0.00186385 4.79744e-05 0)
(0.00187064 5.46946e-05 0)
(0.00187835 6.23568e-05 0)
(0.00188711 7.11081e-05 0)
(0.00189703 8.11133e-05 0)
(0.00190832 9.25786e-05 0)
(0.00192106 0.000105723 0)
(0.0019356 0.000120847 0)
(0.00195193 0.000138232 0)
(0.00197067 0.00015835 0)
(0.00199151 0.000181527 0)
(0.0020157 0.000208565 0)
(0.0020421 0.000239742 0)
(0.00207336 0.00027656 0)
(0.00210643 0.000318928 0)
(0.00214682 0.000369906 0)
(0.00218755 0.000428101 0)
(0.00223933 0.000500199 0)
(0.00228836 0.00058092 0)
(0.00235287 0.000685645 0)
(0.00241065 0.00079842 0)
(0.00248399 0.000955215 0)
(0.0026569 0.00106248 0)
(0.0025013 0.00130026 0)
(0.00256587 0.00155376 0)
(0.00259856 0.00186206 0)
(0.00258359 0.00223046 0)
(0.00255995 0.00276619 0)
(0.00233723 0.00328366 0)
(0.00194142 0.0038226 0)
(0.00134056 0.00430568 0)
(0.000547016 0.00461677 0)
(0.00182325 5.03038e-07 0)
(0.00182343 1.51715e-06 0)
(0.00182378 2.55549e-06 0)
(0.00182432 3.63469e-06 0)
(0.00182505 4.77203e-06 0)
(0.00182599 5.98582e-06 0)
(0.00182715 7.29564e-06 0)
(0.00182855 8.72275e-06 0)
(0.0018302 1.02904e-05 0)
(0.00183215 1.20244e-05 0)
(0.00183441 1.39533e-05 0)
(0.00183702 1.61092e-05 0)
(0.00184003 1.85284e-05 0)
(0.00184348 2.1252e-05 0)
(0.00184743 2.43266e-05 0)
(0.00185195 2.78056e-05 0)
(0.00185709 3.17501e-05 0)
(0.00186296 3.62309e-05 0)
(0.00186964 4.13288e-05 0)
(0.00187724 4.71387e-05 0)
(0.00188588 5.37691e-05 0)
(0.00189572 6.13504e-05 0)
(0.00190689 7.00278e-05 0)
(0.00191963 7.99865e-05 0)
(0.00193407 9.14189e-05 0)
(0.00195058 0.000104602 0)
(0.00196923 0.000119779 0)
(0.00199066 0.000137397 0)
(0.00201475 0.000157722 0)
(0.00204264 0.000181556 0)
(0.0020737 0.000209053 0)
(0.00211012 0.000241807 0)
(0.0021501 0.000279442 0)
(0.00219774 0.000325382 0)
(0.00224904 0.000377585 0)
(0.00231126 0.000443676 0)
(0.00237683 0.000517305 0)
(0.0024571 0.000615139 0)
(0.00254055 0.000721627 0)
(0.00264018 0.000870164 0)
(0.0028342 0.000967922 0)
(0.00273435 0.00123264 0)
(0.00285185 0.00149591 0)
(0.00295096 0.00182766 0)
(0.00301656 0.00224449 0)
(0.003097 0.00286342 0)
(0.00296025 0.00353994 0)
(0.00258577 0.00431034 0)
(0.00187213 0.00507707 0)
(0.000796248 0.00561988 0)
(0.00182415 4.1284e-07 0)
(0.00182434 1.24512e-06 0)
(0.00182473 2.09733e-06 0)
(0.00182531 2.98312e-06 0)
(0.00182611 3.91671e-06 0)
(0.00182712 4.91317e-06 0)
(0.00182838 5.98861e-06 0)
(0.00182989 7.16054e-06 0)
(0.00183168 8.44813e-06 0)
(0.00183379 9.87258e-06 0)
(0.00183624 1.14575e-05 0)
(0.00183907 1.32295e-05 0)
(0.00184233 1.52185e-05 0)
(0.00184608 1.74585e-05 0)
(0.00185037 1.99881e-05 0)
(0.00185527 2.28516e-05 0)
(0.00186087 2.61e-05 0)
(0.00186725 2.97919e-05 0)
(0.00187453 3.39948e-05 0)
(0.00188282 3.87884e-05 0)
(0.00189226 4.42631e-05 0)
(0.00190303 5.05289e-05 0)
(0.00191528 5.77079e-05 0)
(0.00192926 6.59575e-05 0)
(0.00194517 7.54402e-05 0)
(0.00196337 8.63935e-05 0)
(0.00198405 9.90251e-05 0)
(0.00200783 0.000113721 0)
(0.00203475 0.000130717 0)
(0.00206596 0.000150697 0)
(0.0021011 0.000173844 0)
(0.00214228 0.000201474 0)
(0.00218827 0.000233468 0)
(0.00224291 0.000272505 0)
(0.00230338 0.00031755 0)
(0.00237614 0.000374187 0)
(0.00245626 0.000439147 0)
(0.00255293 0.000523913 0)