/*--------------------------------*- C++ -*----------------------------------*\
| =========                 |                                                 |
| \\      /  F ield         | foam-extend: Open Source CFD                    |
|  \\    /   O peration     | Version:     4.0                                |
|   \\  /    A nd           | Web:         http://www.foam-extend.org         |
|    \\/     M anipulation  |                                                 |
\*---------------------------------------------------------------------------*/
FoamFile
{
    version     2.0;
    format      ascii;
    class       volScalarField;
    location    "0.0012";
    object      k;
}
// * * * * * * * * * * * * * * * * * * * * * * * * * * * * * * * * * * * * * //

dimensions      [0 2 -2 0 0 0 0];

internalField   nonuniform List<scalar> 
28770
(
2.47902e-07
6.0608e-07
9.10493e-07
1.18781e-06
1.44183e-06
1.67684e-06
1.89366e-06
2.09295e-06
2.27505e-06
2.4402e-06
2.58859e-06
2.72042e-06
2.83586e-06
2.9351e-06
3.01832e-06
3.08568e-06
3.13731e-06
3.17333e-06
3.1938e-06
3.19878e-06
3.18831e-06
3.16239e-06
3.12105e-06
3.0644e-06
2.99255e-06
2.90577e-06
2.80442e-06
2.68904e-06
2.56037e-06
2.41936e-06
2.26722e-06
2.10543e-06
1.93571e-06
1.76006e-06
1.58073e-06
1.40016e-06
1.22097e-06
1.04586e-06
8.77587e-07
7.1885e-07
5.72195e-07
4.39909e-07
3.23908e-07
2.2562e-07
1.45882e-07
8.4855e-08
4.19353e-08
1.56283e-08
3.26626e-09
2.2747e-10
7.48102e-06
1.80999e-05
2.71286e-05
3.53647e-05
4.29159e-05
4.99005e-05
5.63454e-05
6.22694e-05
6.76826e-05
7.25919e-05
7.70029e-05
8.09212e-05
8.43524e-05
8.7302e-05
8.9775e-05
9.17764e-05
9.331e-05
9.43792e-05
9.49861e-05
9.51322e-05
9.48186e-05
9.40454e-05
9.28138e-05
9.11264e-05
8.89872e-05
8.64036e-05
8.33867e-05
7.99525e-05
7.61229e-05
7.19264e-05
6.73991e-05
6.25846e-05
5.75347e-05
5.23089e-05
4.69737e-05
4.1602e-05
3.62715e-05
3.10632e-05
2.60586e-05
2.13382e-05
1.69776e-05
1.3045e-05
9.59722e-06
6.67681e-06
4.30865e-06
2.49746e-06
1.22532e-06
4.47931e-07
8.66045e-08
3.4485e-09
4.96722e-05
0.000125239
0.000187849
0.000244447
0.000296354
0.00034435
0.000388649
0.000429371
0.000466584
0.000500331
0.000530651
0.000557582
0.000581161
0.000601425
0.000618409
0.000632145
0.000642662
0.000649979
0.000654113
0.000655073
0.000652865
0.000647491
0.000638957
0.000627282
0.000612493
0.000594642
0.000573804
0.000550091
0.000523654
0.00049469
0.000463448
0.000430231
0.000395396
0.000359354
0.000322565
0.000285532
0.000248791
0.000212902
0.000178427
0.000145922
0.000115908
8.88559e-05
6.51586e-05
4.5109e-05
2.88792e-05
1.65045e-05
7.87149e-06
2.70194e-06
4.58989e-07
1.65077e-08
0.000165232
0.000437359
0.000662013
0.000861786
0.00104396
0.00121199
0.001367
0.00150947
0.00163966
0.00175771
0.00186376
0.00195793
0.00204037
0.00211118
0.0021705
0.00221843
0.00225507
0.00228049
0.00229474
0.00229785
0.00228984
0.00227071
0.00224048
0.00219922
0.00214702
0.00208406
0.0020106
0.00192705
0.00183392
0.00173193
0.00162194
0.00150503
0.00138246
0.00125566
0.00112628
0.000996073
0.000866941
0.000740849
0.000619786
0.000505706
0.000400454
0.000305691
0.000222811
0.000152863
9.64862e-05
5.38686e-05
2.46995e-05
7.96742e-06
1.26296e-06
4.41337e-08
0.000390585
0.00107285
0.0016456
0.00214958
0.0026051
0.00302305
0.00340768
0.00376081
0.0040833
0.00437564
0.00463818
0.00487126
0.00507519
0.00525028
0.00539684
0.00551512
0.00560536
0.00566772
0.00570232
0.00570922
0.00568845
0.00564003
0.00556399
0.00546048
0.00532973
0.00517219
0.00498851
0.00477968
0.00454703
0.00429231
0.0040177
0.00372589
0.00342002
0.00310373
0.00278107
0.0024565
0.00213473
0.0018207
0.0015194
0.00123573
0.000974325
0.000739403
0.000534526
0.000362433
0.000224875
0.000122449
5.42266e-05
1.67812e-05
2.57444e-06
8.89019e-08
0.000758594
0.00213598
0.00331994
0.00436021
0.00529369
0.00614461
0.00692448
0.00763882
0.00829029
0.00888035
0.00940994
0.00987983
0.0102907
0.0106433
0.010938
0.0111756
0.0113564
0.0114808
0.0115489
0.0115609
0.0115167
0.0114165
0.0112603
0.0110482
0.0107809
0.0104592
0.0100843
0.00965844
0.00918416
0.00866508
0.00810568
0.00751141
0.00688872
0.00624504
0.00558867
0.00492869
0.0042748
0.0036371
0.00302582
0.00245105
0.00192242
0.00144871
0.00103747
0.000694551
0.000423667
0.000225687
9.73825e-05
2.93769e-05
4.43096e-06
1.52056e-07
0.00129703
0.00371177
0.00583548
0.00771078
0.00938772
0.0109076
0.0122939
0.0135594
0.0147111
0.0157526
0.0166863
0.0175141
0.0182373
0.0188572
0.0193749
0.0197914
0.0201075
0.0203237
0.0204402
0.0204574
0.0203751
0.0201933
0.0199122
0.019532
0.0190537
0.0184788
0.0178096
0.0170496
0.0162038
0.0152785
0.0142817
0.0132231
0.0121144
0.0109687
0.00980104
0.00862769
0.00746605
0.0063343
0.00525088
0.00423411
0.00330151
0.00246923
0.00175118
0.00115798
0.000695708
0.00036414
0.000154261
4.57971e-05
6.83921e-06
2.33787e-07
0.00202682
0.00586283
0.0093031
0.012366
0.0151052
0.0175781
0.0198238
0.0218662
0.0237194
0.0253918
0.0268888
0.0282142
0.0293708
0.0303609
0.0311867
0.0318496
0.0323509
0.0326915
0.0328719
0.0328922
0.0327523
0.0324521
0.0319917
0.0313715
0.030593
0.0296584
0.0285716
0.0273384
0.0259666
0.0244665
0.0228512
0.0211365
0.0193414
0.0174876
0.0155994
0.0137035
0.0118284
0.0100041
0.00826085
0.00662895
0.00513746
0.00381322
0.00267912
0.00175186
0.0010391
0.000536517
0.000224352
6.59086e-05
9.77859e-06
3.33393e-07
0.00296111
0.00862731
0.0137906
0.0184301
0.0225898
0.0263386
0.029731
0.0328053
0.0355861
0.0380892
0.0403253
0.0423015
0.0440234
0.0454953
0.0467205
0.0477018
0.048441
0.0489395
0.0491979
0.0492165
0.0489948
0.0485326
0.0478299
0.0468873
0.0457067
0.0442916
0.0426478
0.0407838
0.0387116
0.0364468
0.0340093
0.0314232
0.0287174
0.0259248
0.0230828
0.0202322
0.0174167
0.0146822
0.0120753
0.00964238
0.00742801
0.00547318
0.00381225
0.00246843
0.00144868
0.00074017
0.000306633
8.94291e-05
1.32069e-05
4.49383e-07
0.00410486
0.012018
0.0193212
0.025942
0.0319027
0.0372742
0.0421244
0.0465062
0.0504576
0.0540049
0.0571661
0.0599543
0.0623792
0.0644481
0.0661666
0.0675391
0.0685686
0.0692571
0.0696054
0.0696137
0.0692815
0.068608
0.067593
0.0662374
0.0645437
0.0625168
0.0601648
0.0575
0.0545395
0.0513057
0.0478272
0.044139
0.0402827
0.036306
0.0322631
0.0282132
0.0242199
0.0203498
0.0166703
0.0132484
0.0101477
0.00742617
0.00513199
0.0032948
0.00191688
0.000971362
0.000399645
0.000115956
1.70624e-05
5.79382e-07
0.00545437
0.0160203
0.0258701
0.0348726
0.0430164
0.0503642
0.0569917
0.0629654
0.0683377
0.0731475
0.0774232
0.0811858
0.0844511
0.087231
0.0895347
0.0913687
0.0927379
0.0936451
0.0940917
0.0940776
0.093602
0.0926635
0.091262
0.0893982
0.0870753
0.0842999
0.0810832
0.0774418
0.0733992
0.0689864
0.0642428
0.0592168
0.0539659
0.0485565
0.0430637
0.03757
0.0321638
0.0269373
0.0219838
0.017394
0.013253
0.00963761
0.00661198
0.00421351
0.0024342
0.00122577
0.000501745
0.000145033
2.12647e-05
7.19465e-07
0.0069978
0.0205928
0.0333676
0.0451282
0.0558186
0.0654842
0.0742008
0.0820457
0.089085
0.0953715
0.100946
0.10584
0.110077
0.113676
0.116651
0.119011
0.120764
0.121913
0.122462
0.12241
0.121755
0.120496
0.118632
0.116164
0.113096
0.109436
0.105199
0.100408
0.0950924
0.0892945
0.0830666
0.0764733
0.0695914
0.0625099
0.0553292
0.0481599
0.0411205
0.0343342
0.0279242
0.0220077
0.0166907
0.0120664
0.00821978
0.00520265
0.00298991
0.00149961
0.000611922
0.000176495
2.57688e-05
8.6638e-07
0.00871574
0.0256698
0.0417022
0.0565543
0.0701164
0.0824101
0.0935032
0.103478
0.112414
0.120376
0.127421
0.13359
0.138919
0.143434
0.147155
0.150096
0.152269
0.15368
0.15433
0.154221
0.15335
0.151715
0.149315
0.14615
0.142226
0.137553
0.132151
0.126046
0.11928
0.111905
0.10399
0.0956181
0.0868888
0.0779174
0.0688343
0.0597829
0.050917
0.042396
0.0343775
0.0270072
0.0204062
0.0146708
0.00991869
0.00623558
0.00357233
0.00179121
0.000730843
0.000210975
3.06744e-05
1.02371e-06
0.0105815
0.0311616
0.0507222
0.0689361
0.0856392
0.100824
0.114539
0.126869
0.137899
0.147711
0.156373
0.163942
0.170464
0.175976
0.180505
0.184072
0.186693
0.188374
0.189121
0.188934
0.187811
0.185748
0.182744
0.1788
0.173921
0.168121
0.161423
0.153863
0.14549
0.136373
0.126596
0.116264
0.105503
0.0944587
0.0832942
0.0721906
0.0613419
0.0509493
0.0412115
0.0323066
0.0243589
0.0174137
0.0116717
0.00728612
0.0041771
0.00210646
0.000861962
0.000249773
3.59684e-05
1.20253e-06
0.0125623
0.0369589
0.0602412
0.0820128
0.102059
0.120333
0.13686
0.151718
0.165001
0.176799
0.187195
0.19626
0.204054
0.210623
0.216006
0.22023
0.223314
0.225271
0.226106
0.22582
0.224411
0.221875
0.21821
0.213416
0.207501
0.200481
0.192384
0.183253
0.173151
0.162159
0.150383
0.137952
0.125019
0.111762
0.0983827
0.0851015
0.0721568
0.0597981
0.0482765
0.0378217
0.028562
0.0202422
0.0134051
0.00833627
0.00482859
0.00247549
0.00101822
0.000297413
4.26046e-05
1.25933e-06
0.0146197
0.042937
0.070048
0.0954918
0.119004
0.140485
0.159944
0.177445
0.193084
0.20696
0.219167
0.229792
0.238907
0.246571
0.252833
0.257729
0.261283
0.263511
0.264423
0.264019
0.262296
0.259252
0.254882
0.249188
0.242179
0.233872
0.224303
0.213524
0.201608
0.188655
0.17479
0.160169
0.144975
0.12942
0.113745
0.0982115
0.0831037
0.0687232
0.0553875
0.0434445
0.0367746
0.0245941
0.0161798
0.0102236
0.0061536
0.00335244
0.00149487
0.000476764
8.97416e-05
3.01047e-06
0.0167104
0.0489593
0.0799134
0.109056
0.136053
0.160775
0.183215
0.203407
0.221445
0.237437
0.251488
0.263696
0.27415
0.28292
0.290066
0.295632
0.29965
0.30214
0.303115
0.302575
0.30052
0.296944
0.291844
0.285221
0.277086
0.26746
0.256385
0.24392
0.230154
0.215202
0.199213
0.182368
0.164883
0.147005
0.129012
0.111207
0.0939165
0.0774858
0.0622741
0.048619
0.0404442
0.0269052
0.0172865
0.0109369
0.0067796
0.00376459
0.00167018
0.000530343
9.19078e-05
3.41839e-06
0.0187865
0.0548821
0.0895956
0.12236
0.152778
0.180704
0.206079
0.228932
0.249347
0.267435
0.283312
0.297087
0.308861
0.318719
0.326731
0.332949
0.337415
0.340152
0.341175
0.340487
0.338088
0.333973
0.328137
0.320583
0.311322
0.300379
0.287803
0.273662
0.258059
0.241126
0.223035
0.203994
0.184249
0.164085
0.143815
0.123782
0.104348
0.0858905
0.0687999
0.0534073
0.0438036
0.0287752
0.0183436
0.0117396
0.00745793
0.00413721
0.001818
0.000582668
0.00010242
3.98199e-06
0.0207973
0.0605596
0.0988545
0.135073
0.16877
0.199744
0.227927
0.253345
0.276048
0.296154
0.313787
0.329068
0.342109
0.353008
0.361844
0.368681
0.373566
0.376528
0.377585
0.376744
0.374001
0.369354
0.362799
0.354337
0.343982
0.331763
0.317734
0.301975
0.284599
0.265759
0.245647
0.224498
0.20259
0.180239
0.157799
0.135648
0.114183
0.0938082
0.0749372
0.0579492
0.0474392
0.0310555
0.019924
0.0129431
0.00827795
0.00405149
0.00170698
0.000581585
0.000105231
4.44578e-06
0.02269
0.0658485
0.107456
0.146869
0.183605
0.217402
0.248206
0.275999
0.300833
0.322819
0.342088
0.358772
0.37299
0.384853
0.394451
0.401856
0.407122
0.410283
0.411362
0.410364
0.407291
0.402137
0.394899
0.385581
0.374196
0.360779
0.345389
0.328114
0.309083
0.288463
0.266469
0.24336
0.219443
0.195069
0.170624
0.146525
0.123206
0.101106
0.0806698
0.0623328
0.0510374
0.0337398
0.0218435
0.0143181
0.0091186
0.00430496
0.00200182
0.000657061
0.000131228
7.16149e-06
0.0244117
0.0706126
0.115181
0.15745
0.196902
0.233245
0.26637
0.296282
0.323036
0.346713
0.367451
0.38539
0.400663
0.413388
0.423663
0.431571
0.43717
0.440501
0.441588
0.44044
0.437058
0.431438
0.423577
0.413479
0.40116
0.386658
0.370037
0.351395
0.330872
0.308651
0.284966
0.2601
0.234387
0.208207
0.181978
0.156151
0.131196
0.107589
0.0858139
0.0663342
0.0542214
0.0362407
0.0235547
0.0154587
0.00979051
0.00465861
0.00214096
0.000673942
0.000144564
8.43646e-06
0.0259119
0.074727
0.121832
0.166545
0.208321
0.246842
0.281957
0.313682
0.342068
0.367197
0.389194
0.408208
0.424382
0.437839
0.44869
0.457021
0.462897
0.466364
0.467449
0.466162
0.462505
0.456475
0.448069
0.437292
0.424161
0.408719
0.391034
0.371212
0.349404
0.325807
0.30067
0.274299
0.24705
0.219329
0.191583
0.164292
0.137954
0.113076
0.0901739
0.0697301
0.0567639
0.0382065
0.024818
0.0162596
0.0103035
0.00501517
0.00227574
0.000719905
9.66116e-05
6.86389e-07
0.0271452
0.0780827
0.127239
0.173924
0.217575
0.257853
0.294584
0.327747
0.357435
0.383733
0.406745
0.426621
0.443515
0.457558
0.468864
0.477528
0.483619
0.487186
0.488258
0.486849
0.48296
0.476588
0.467732
0.456396
0.442601
0.426391
0.407839
0.387059
0.364208
0.339496
0.313187
0.285603
0.257119
0.228163
0.199206
0.170749
0.143312
0.117422
0.093614
0.0723933
0.0587525
0.0397219
0.0257745
0.0168818
0.0107646
0.00524646
0.00242392
0.000827889
1.09941e-06
1e-15
0.0280733
0.0805921
0.131269
0.179409
0.224439
0.266007
0.303925
0.338149
0.368765
0.3959
0.419658
0.440163
0.457577
0.47204
0.483671
0.492568
0.498806
0.502435
0.503487
0.501975
0.497904
0.49127
0.482071
0.470315
0.456021
0.439237
0.42004
0.398547
0.374925
0.34939
0.322219
0.293745
0.264358
0.234503
0.204667
0.175368
0.147144
0.120533
0.0960757
0.0742866
0.0602054
0.0409497
0.0265911
0.0174182
0.0111534
0.00540469
0.00260301
0.00106934
0.000180816
1e-15
0.0286745
0.0822132
0.133867
0.182934
0.228837
0.271217
0.309878
0.344765
0.375945
0.40358
0.427789
0.448681
0.466409
0.481122
0.492943
0.501972
0.508287
0.511941
0.512967
0.511378
0.507179
0.500368
0.490942
0.478909
0.464292
0.447137
0.427526
0.405579
0.381467
0.355413
0.3277
0.298669
0.268721
0.23831
0.207934
0.178123
0.149424
0.122389
0.097567
0.0754812
0.0610481
0.0418661
0.0272548
0.0178393
0.0113947
0.00557662
0.00271962
0.00103159
4.86833e-05
1e-15
0.0289269
0.0828939
0.134951
0.18439
0.230632
0.273316
0.312248
0.347369
0.37874
0.406525
0.430872
0.451888
0.46971
0.484492
0.496359
0.505415
0.511736
0.515378
0.516372
0.514735
0.510469
0.503572
0.494044
0.481891
0.467136
0.449829
0.43005
0.407923
0.38362
0.357368
0.329451
0.300216
0.270067
0.239461
0.2089
0.178919
0.150068
0.122903
0.0979758
0.0758022
0.0611954
0.0422928
0.0275662
0.0180383
0.0114878
0.00568146
0.00271518
0.00105857
0.00037206
0.000124889
0.028825
0.0826186
0.134493
0.183735
0.229769
0.272239
0.310957
0.345868
0.37704
0.404646
0.428822
0.44968
0.467368
0.482033
0.493801
0.502775
0.509031
0.512623
0.513584
0.511928
0.507658
0.500772
0.49127
0.479157
0.464458
0.447221
0.427528
0.405502
0.381315
0.355192
0.327419
0.298339
0.268354
0.23792
0.207535
0.17773
0.149053
0.122057
0.0972963
0.0752838
0.0604977
0.0420793
0.0274259
0.0179336
0.0113954
0.00563877
0.00267914
0.00104682
0.000272456
2.60092e-05
0.0283709
0.0813902
0.132493
0.180967
0.226245
0.267982
0.306001
0.340262
0.370858
0.397936
0.421631
0.442066
0.459394
0.473759
0.485285
0.49407
0.50019
0.503696
0.50462
0.502976
0.498766
0.491987
0.482638
0.470726
0.456274
0.43933
0.419974
0.398328
0.374561
0.348895
0.321608
0.29304
0.263584
0.233687
0.203837
0.174555
0.146378
0.119845
0.0955008
0.0738572
0.0591644
0.0412781
0.0268459
0.0175502
0.0111482
0.00548136
0.00256038
0.000909085
0.000122769
1e-15
0.0275808
0.0792466
0.129014
0.176171
0.220169
0.260679
0.29754
0.330741
0.360393
0.386616
0.409535
0.429298
0.446058
0.459953
0.471102
0.479599
0.485517
0.488904
0.48979
0.488186
0.484095
0.477514
0.46844
0.45688
0.442856
0.426416
0.407637
0.386636
0.363578
0.338679
0.312207
0.284491
0.255911
0.226898
0.197927
0.1695
0.142138
0.116363
0.0927009
0.0716582
0.0572041
0.0400558
0.0260368
0.017005
0.0107764
0.00524103
0.00241199
0.000842886
0.000294293
3.16462e-05
0.0264644
0.076206
0.124083
0.169388
0.211596
0.2504
0.285664
0.317425
0.345764
0.370805
0.392677
0.411537
0.427532
0.440795
0.45144
0.459555
0.465207
0.468443
0.469289
0.467754
0.46384
0.457543
0.448861
0.437799
0.424379
0.408645
0.390672
0.370573
0.348504
0.32467
0.299329
0.272793
0.245424
0.217635
0.189876
0.162628
0.13639
0.111662
0.0889499
0.0687497
0.0547259
0.0385938
0.0250973
0.0163809
0.0103343
0.00495146
0.00226572
0.000782306
0.000205449
1.44763e-05
0.0250603
0.0723551
0.117831
0.160793
0.200743
0.237407
0.270696
0.300643
0.327348
0.350918
0.371501
0.389249
0.404305
0.416795
0.426822
0.434472
0.439805
0.442862
0.443666
0.442225
0.43854
0.432606
0.424419
0.413987
0.401327
0.386483
0.369524
0.350556
0.329727
0.307229
0.283304
0.258244
0.232391
0.20613
0.179886
0.154113
0.12928
0.105864
0.0843372
0.065135
0.0518486
0.0367936
0.0239384
0.0156671
0.00985046
0.0046473
0.00211756
0.000678165
0.000148934
6.518e-06
0.0234111
0.067795
0.110416
0.150599
0.187882
0.222025
0.253001
0.280834
0.305615
0.327476
0.346564
0.363025
0.376996
0.388591
0.397908
0.405022
0.409989
0.412843
0.413604
0.41228
0.408867
0.403363
0.395763
0.386071
0.374308
0.36051
0.344743
0.327105
0.307732
0.286802
0.264539
0.241212
0.217137
0.192672
0.168208
0.144167
0.120988
0.09912
0.0790293
0.0611543
0.0482482
0.0345002
0.0224627
0.0146668
0.00921953
0.00431565
0.00197678
0.000656215
0.000113259
2.75285e-06
0.0215664
0.0626465
0.102029
0.139068
0.173343
0.204677
0.233037
0.258498
0.28114
0.301103
0.318535
0.333573
0.346342
0.35695
0.365482
0.372005
0.376567
0.379199
0.379917
0.378725
0.375621
0.370599
0.363657
0.354797
0.344037
0.331412
0.316981
0.300832
0.28309
0.263917
0.243516
0.222131
0.20005
0.177598
0.155132
0.133038
0.111716
0.0915716
0.0730179
0.0564605
0.044531
0.0317639
0.0205404
0.013369
0.0084574
0.00399362
0.00171015
0.000587081
0.000107631
3.45446e-06
0.0195795
0.0570452
0.0928871
0.126496
0.157503
0.185792
0.211346
0.234239
0.254583
0.272515
0.288177
0.301695
0.313183
0.322737
0.330431
0.336324
0.340455
0.342851
0.343523
0.342475
0.339702
0.335201
0.328967
0.321003
0.311325
0.299964
0.286972
0.272429
0.256446
0.239168
0.220775
0.201487
0.181559
0.161284
0.140982
0.121002
0.101708
0.0834714
0.0666715
0.0516879
0.0406232
0.0290995
0.0186565
0.0119882
0.00760239
0.00416912
0.00178453
0.000597549
0.000105929
4.07926e-06
0.0175043
0.051136
0.0832251
0.113211
0.14079
0.165867
0.188482
0.208704
0.226662
0.24249
0.256319
0.268265
0.278428
0.28689
0.293717
0.298955
0.302638
0.304787
0.305411
0.304511
0.302083
0.298123
0.292626
0.285595
0.277044
0.267
0.255509
0.242641
0.228494
0.213194
0.1969
0.179804
0.162131
0.144136
0.126103
0.108342
0.0911798
0.0749558
0.06001
0.0466876
0.0373912
0.026932
0.0172301
0.0109518
0.00684645
0.00381766
0.00168706
0.000533025
9.16429e-05
3.45612e-06
0.0153939
0.0450683
0.0732889
0.0995493
0.123621
0.145439
0.165058
0.18258
0.198131
0.21184
0.223825
0.23419
0.243019
0.250382
0.256333
0.260909
0.264138
0.266035
0.266607
0.265853
0.263771
0.260354
0.2556
0.249512
0.2421
0.233388
0.223416
0.212246
0.199959
0.186665
0.172501
0.157631
0.142249
0.126576
0.110857
0.0953608
0.0803785
0.0662232
0.0532432
0.0418022
0.0330953
0.0249208
0.0161801
0.0102134
0.00625545
0.00343517
0.00153288
0.000479592
8.29064e-05
2.99478e-06
0.0132984
0.0389918
0.063329
0.0858688
0.106435
0.125019
0.141686
0.156552
0.169743
0.181377
0.191558
0.200373
0.207895
0.214178
0.219266
0.223188
0.225966
0.22761
0.228126
0.227512
0.225765
0.22288
0.218854
0.21369
0.207397
0.199995
0.191519
0.182018
0.171565
0.16025
0.148188
0.135519
0.122404
0.10903
0.0956049
0.0823549
0.0695244
0.0573772
0.0462106
0.0363287
0.0275255
0.0195157
0.0128356
0.00797515
0.00469328
0.00238929
0.000976807
0.000288164
3.82417e-05
1.19649e-06
0.0112642
0.0330504
0.0535857
0.0725011
0.0896724
0.10513
0.118962
0.131288
0.142226
0.151881
0.160341
0.167678
0.173949
0.179197
0.183456
0.186747
0.189087
0.190484
0.190939
0.190453
0.189022
0.18664
0.183308
0.179026
0.173802
0.167654
0.160609
0.15271
0.144015
0.134599
0.124558
0.114005
0.103073
0.0919176
0.0807084
0.0696329
0.0588891
0.0486804
0.0392213
0.0307578
0.0233034
0.0165984
0.0111179
0.00699887
0.00402402
0.00202776
0.000834215
0.000236754
3.42533e-05
1.15763e-06
0.00933268
0.0273772
0.0442832
0.0597555
0.0737248
0.0862493
0.0974347
0.107397
0.116243
0.12406
0.130921
0.136882
0.141987
0.146267
0.149747
0.152444
0.154369
0.155527
0.15592
0.155546
0.154403
0.152487
0.149796
0.146333
0.142104
0.137123
0.131413
0.125007
0.117954
0.110313
0.102161
0.0935888
0.0847045
0.0756307
0.0665047
0.057477
0.0487074
0.0403541
0.0325631
0.0255046
0.0192791
0.0138424
0.00935806
0.00590513
0.00338999
0.00169965
0.000694723
0.000199413
2.90572e-05
9.80793e-07
0.00753993
0.0220911
0.0356238
0.0479132
0.0589441
0.0687967
0.0775821
0.0854074
0.0923629
0.0985203
0.103935
0.108648
0.112691
0.116089
0.118856
0.121007
0.122547
0.123481
0.12381
0.123532
0.122644
0.121145
0.119033
0.11631
0.112981
0.109057
0.104557
0.0995066
0.0939438
0.0879158
0.0814823
0.0747146
0.0676967
0.0605239
0.0533027
0.0461496
0.0391895
0.032548
0.0263331
0.0206587
0.0156287
0.0112769
0.00767254
0.00485754
0.00279309
0.00140048
0.000571235
0.000164302
2.39894e-05
8.09958e-07
0.00591609
0.0172924
0.0277759
0.0372115
0.0456277
0.0531201
0.0597954
0.0657458
0.0710437
0.0757433
0.0798843
0.0834963
0.0866007
0.0892137
0.0913468
0.0930079
0.0942019
0.0949315
0.0951968
0.0949967
0.0943294
0.0931933
0.0915875
0.0895134
0.0869753
0.0839819
0.0805472
0.0766918
0.0724438
0.0678394
0.0629239
0.0577514
0.0523854
0.046898
0.0413689
0.035885
0.0305389
0.0254267
0.0206326
0.0162362
0.0123177
0.00892704
0.00610727
0.00388384
0.00224069
0.00112635
0.000459921
0.000132456
1.93562e-05
6.53591e-07
0.00448413
0.0130576
0.0208684
0.0278279
0.0339961
0.0394735
0.0443543
0.0487122
0.052601
0.0560585
0.0591116
0.0617797
0.0640769
0.0660135
0.067597
0.0688328
0.0697239
0.0702721
0.0704774
0.0703389
0.0698554
0.0690258
0.0678495
0.0663278
0.0644639
0.0622643
0.0597395
0.0569047
0.0537806
0.0503938
0.0467775
0.0429713
0.0390215
0.0349805
0.0309064
0.0268617
0.0229122
0.0191269
0.0155694
0.0122971
0.00936634
0.00682085
0.00469294
0.00300106
0.00174001
0.000878445
0.000359811
0.000103841
1.5189e-05
5.12901e-07
0.00325959
0.00943936
0.0149891
0.0198789
0.024188
0.0280097
0.03142
0.0344725
0.0372036
0.0396376
0.0417914
0.0436767
0.0453023
0.0466745
0.0477982
0.0486766
0.0493119
0.049705
0.0498559
0.0497642
0.0494289
0.0488493
0.0480253
0.0469577
0.0456489
0.0441036
0.0423294
0.0403368
0.0381406
0.0357596
0.0332168
0.0305402
0.027762
0.0249188
0.022051
0.0192021
0.0164168
0.0137421
0.0112229
0.00889953
0.00681006
0.00498648
0.00345271
0.00222299
0.00129754
0.000659121
0.000271323
7.85655e-05
1.15087e-05
3.88655e-07
0.0022497
0.00646281
0.0101792
0.0134153
0.0162547
0.0187747
0.0210295
0.0230542
0.0248707
0.0264934
0.0279316
0.0291923
0.0302806
0.0312002
0.031954
0.0325442
0.0329719
0.033238
0.0333423
0.0332846
0.0330643
0.032681
0.0321346
0.0314258
0.0305563
0.0295292
0.0283496
0.0270247
0.0255643
0.0239808
0.0222898
0.0205097
0.0186619
0.0167704
0.0148621
0.0129653
0.0111096
0.00932493
0.0076408
0.00608399
0.00467899
0.00344689
0.00240393
0.00156044
0.000918759
0.000470711
0.000195198
5.6815e-05
8.34204e-06
2.81775e-07
0.00145269
0.00412462
0.00643041
0.00841571
0.0101548
0.0117026
0.013093
0.0143457
0.0154726
0.016481
0.017376
0.0181613
0.0188396
0.0194132
0.0198838
0.0202526
0.0205204
0.0206877
0.0207544
0.0207203
0.0205852
0.0203489
0.0200112
0.0195727
0.0190345
0.0183986
0.017668
0.0168475
0.0159429
0.0149621
0.0139147
0.0128122
0.0116677
0.0104962
0.00931391
0.0081385
0.00698797
0.00588049
0.0048339
0.00386463
0.00298743
0.00221495
0.00155712
0.00102051
0.000607498
0.000314889
0.000132007
3.87356e-05
5.70943e-06
1.92943e-07
0.000858081
0.00239424
0.00368605
0.00478904
0.00575731
0.00662341
0.00740485
0.00811109
0.00874761
0.0093179
0.00982443
0.0102691
0.0106534
0.0109784
0.0112453
0.0114546
0.0116068
0.0117021
0.0117406
0.0117222
0.0116466
0.0115139
0.011324
0.0110772
0.0107741
0.0104159
0.0100044
0.00954205
0.00903244
0.00847991
0.00788989
0.00726882
0.00662418
0.00596431
0.00529839
0.00463621
0.00398789
0.00336351
0.00277293
0.00222527
0.00172864
0.00128991
0.000914446
0.000605805
0.000365489
0.000192424
8.19765e-05
2.43752e-05
3.61709e-06
1.22358e-07
0.000446695
0.00121399
0.00184179
0.0023767
0.00284931
0.00327461
0.00365978
0.00400861
0.00432333
0.00460546
0.00485612
0.0050762
0.00526643
0.00542739
0.00555955
0.00566326
0.00573873
0.00578611
0.00580541
0.00579658
0.00575955
0.00569428
0.00560078
0.00547919
0.00532983
0.00515327
0.00495041
0.00472253
0.00447133
0.004199
0.0039082
0.00360213
0.00328447
0.00295934
0.00263124
0.00230497
0.0019855
0.00167776
0.00138654
0.00111629
0.000870919
0.000653726
0.000467214
0.000313003
0.000191736
0.000102973
4.49116e-05
1.36564e-05
2.05286e-06
6.96027e-08
0.000191359
0.000500096
0.000747322
0.000959501
0.00114863
0.00131966
0.00147487
0.00161555
0.0017425
0.00185631
0.00195742
0.00204619
0.00212292
0.00218784
0.00224116
0.00228301
0.00231348
0.00233264
0.00234047
0.00233698
0.00232213
0.0022959
0.00225831
0.00220941
0.00214932
0.0020783
0.00199669
0.00190501
0.00180396
0.00169441
0.00157744
0.00145435
0.0013266
0.00119586
0.00106394
0.000932771
0.00080433
0.000680601
0.000563493
0.000454781
0.000356027
0.000268524
0.000193245
0.000130791
8.13553e-05
4.47011e-05
2.01327e-05
6.35829e-06
9.8244e-07
3.35153e-08
5.83979e-05
0.000144894
0.000214027
0.000274194
0.000328167
0.000377057
0.000421437
0.000461651
0.000497934
0.000530453
0.00055934
0.000584698
0.000606615
0.000625161
0.00064039
0.000652344
0.000661049
0.000666522
0.000668764
0.00066777
0.000663534
0.000656051
0.000645322
0.000631364
0.000614214
0.00059394
0.000570646
0.000544479
0.000515637
0.000484372
0.000450993
0.000415867
0.000379418
0.00034212
0.00030449
0.000267076
0.000230444
0.000195159
0.000161762
0.000130758
0.00010259
7.76241e-05
5.61314e-05
3.82764e-05
2.41033e-05
1.35254e-05
6.31816e-06
2.11467e-06
3.47648e-07
1.20881e-08
8.95846e-06
2.12138e-05
3.12185e-05
3.99919e-05
4.78655e-05
5.49936e-05
6.14609e-05
6.73194e-05
7.26037e-05
7.7339e-05
8.15447e-05
8.52364e-05
8.84268e-05
9.11261e-05
9.33424e-05
9.50819e-05
9.63485e-05
9.71444e-05
9.74699e-05
9.7324e-05
9.6706e-05
9.56149e-05
9.4051e-05
9.20167e-05
8.95173e-05
8.65627e-05
8.3168e-05
7.93547e-05
7.51518e-05
7.05958e-05
6.57321e-05
6.06143e-05
5.5304e-05
4.98707e-05
4.43896e-05
3.89407e-05
3.36063e-05
2.84686e-05
2.36067e-05
1.90937e-05
1.4994e-05
1.13606e-05
8.23275e-06
5.63381e-06
3.56964e-06
2.02696e-06
9.71272e-07
3.44763e-07
6.38916e-08
2.40658e-09
3.02115e-07
7.18368e-07
1.05705e-06
1.35348e-06
1.61935e-06
1.85998e-06
2.07827e-06
2.27598e-06
2.4543e-06
2.61408e-06
2.75598e-06
2.88052e-06
2.98814e-06
3.07919e-06
3.15394e-06
3.2126e-06
3.2553e-06
3.28211e-06
3.29305e-06
3.28807e-06
3.26715e-06
3.23026e-06
3.17739e-06
3.10863e-06
3.02416e-06
2.9243e-06
2.80957e-06
2.68069e-06
2.53864e-06
2.38466e-06
2.22027e-06
2.04731e-06
1.86784e-06
1.68423e-06
1.49902e-06
1.31492e-06
1.1347e-06
9.61154e-07
7.96946e-07
6.44552e-07
5.06145e-07
3.83511e-07
2.77969e-07
1.90299e-07
1.20686e-07
6.86726e-08
3.30916e-08
1.19525e-08
2.38273e-09
1.52676e-10
4.79235e-07
1e-15
3.58341e-09
5.53945e-12
9.62635e-11
1e-15
1e-15
3.7257e-14
1e-15
3.6235e-15
1e-15
1e-15
4.66839e-14
3.30274e-14
4.06118e-13
1e-15
1e-15
1.78778e-09
1e-15
6.19926e-08
1.56793e-07
1e-15
1.77925e-07
1e-15
4.61681e-09
1e-15
8.34045e-13
4.57843e-13
1e-15
1.66899e-13
1e-15
1e-15
2.44791e-12
1e-15
1.1427e-10
1e-15
1e-15
8.41827e-08
1e-15
6.30249e-06
3.95887e-08
1e-15
4.59877e-08
1e-15
9.92623e-10
1e-15
1.39138e-14
2.26669e-13
1e-15
3.49059e-14
1e-15
1e-15
4.33532e-13
1e-15
2.38886e-11
1e-15
1e-15
1.19946e-08
1e-15
1.73284e-06
1.34276e-10
2.09418e-09
1.04742e-08
2.88135e-08
5.91766e-08
1.02538e-07
1.58851e-07
2.27167e-07
3.0578e-07
3.92397e-07
4.84327e-07
5.78678e-07
6.72553e-07
7.63227e-07
8.48293e-07
9.25768e-07
9.9417e-07
1.05254e-06
1.10045e-06
1.13794e-06
1.16549e-06
1.18393e-06
1.19434e-06
1.19799e-06
1.19624e-06
1.19047e-06
1.18203e-06
1.1722e-06
1.16216e-06
1.15294e-06
1.14549e-06
1.14063e-06
1.13911e-06
1.14161e-06
1.14874e-06
1.1611e-06
1.17927e-06
1.20383e-06
1.23532e-06
1.27432e-06
1.32135e-06
1.37691e-06
1.44142e-06
1.51516e-06
1.59823e-06
1.6905e-06
1.79151e-06
1.90045e-06
2.01614e-06
2.13708e-06
2.26149e-06
2.38744e-06
2.51296e-06
2.63616e-06
2.75529e-06
2.86887e-06
2.9757e-06
3.07488e-06
3.16584e-06
3.24831e-06
3.32223e-06
3.38781e-06
3.44537e-06
3.49539e-06
3.53842e-06
3.57506e-06
3.60593e-06
3.63165e-06
3.65283e-06
3.67002e-06
3.68376e-06
3.69452e-06
3.70271e-06
3.7087e-06
3.71278e-06
3.71518e-06
3.7161e-06
3.71566e-06
3.71392e-06
3.71091e-06
3.70664e-06
3.70106e-06
3.69409e-06
3.68564e-06
3.67561e-06
3.66387e-06
3.65031e-06
3.6348e-06
3.61727e-06
3.59765e-06
3.57592e-06
3.55211e-06
3.52635e-06
3.49884e-06
3.46997e-06
3.44031e-06
3.41078e-06
3.38285e-06
3.3589e-06
3.34297e-06
2.11699e-09
5.61701e-08
3.02213e-07
8.46135e-07
1.74865e-06
3.03833e-06
4.71367e-06
6.74622e-06
9.08506e-06
1.16618e-05
1.43962e-05
1.72022e-05
1.99935e-05
2.26891e-05
2.52173e-05
2.75193e-05
2.95511e-05
3.12842e-05
3.27059e-05
3.38178e-05
3.46342e-05
3.51795e-05
3.54863e-05
3.55922e-05
3.55378e-05
3.53641e-05
3.51115e-05
3.4818e-05
3.45182e-05
3.42434e-05
3.40213e-05
3.38766e-05
3.38312e-05
3.39055e-05
3.41177e-05
3.44856e-05
3.50265e-05
3.57571e-05
3.66944e-05
3.78548e-05
3.92543e-05
4.09077e-05
4.28272e-05
4.50215e-05
4.74939e-05
5.02399e-05
5.32463e-05
5.64888e-05
5.99324e-05
6.35322e-05
6.72353e-05
7.09843e-05
7.47204e-05
7.83871e-05
8.19329e-05
8.5313e-05
8.84922e-05
9.14435e-05
9.41503e-05
9.6604e-05
9.88038e-05
0.000100755
0.000102468
0.000103956
0.000105237
0.000106327
0.000107246
0.000108011
0.000108641
0.000109153
0.000109562
0.000109883
0.000110127
0.000110305
0.000110426
0.000110498
0.000110526
0.000110512
0.000110461
0.000110371
0.000110244
0.000110078
0.000109871
0.000109619
0.000109321
0.000108971
0.000108568
0.000108106
0.000107584
0.000107
0.000106354
0.000105645
0.000104878
0.00010406
0.0001032
0.000102317
0.000101438
0.000100606
9.9892e-05
9.9415e-05
1.06511e-08
3.06124e-07
1.85697e-06
5.51526e-06
1.16954e-05
2.05698e-05
3.21171e-05
4.61349e-05
6.22663e-05
8.0035e-05
9.88837e-05
0.000118216
0.000137435
0.000155981
0.000173361
0.000189169
0.000203105
0.000214975
0.000224693
0.000232274
0.000237818
0.000241497
0.000243537
0.000244199
0.000243763
0.000242514
0.00024073
0.000238672
0.000236579
0.000234665
0.00023312
0.000232112
0.000231794
0.000232302
0.000233763
0.000236299
0.000240027
0.000245065
0.000251527
0.000259529
0.000269179
0.000280581
0.000293821
0.00030896
0.000326021
0.000344977