/*--------------------------------*- C++ -*----------------------------------*\
| =========                 |                                                 |
| \\      /  F ield         | foam-extend: Open Source CFD                    |
|  \\    /   O peration     | Version:     4.0                                |
|   \\  /    A nd           | Web:         http://www.foam-extend.org         |
|    \\/     M anipulation  |                                                 |
\*---------------------------------------------------------------------------*/
FoamFile
{
    version     2.0;
    format      ascii;
    class       volScalarField;
    location    "0.0012";
    object      nut;
}
// * * * * * * * * * * * * * * * * * * * * * * * * * * * * * * * * * * * * * //

dimensions      [0 2 -1 0 0 0 0];

internalField   nonuniform List<scalar> 
28770
(
1.32147e-14
3.23079e-14
4.85351e-14
6.33181e-14
7.68587e-14
8.93865e-14
1.00944e-13
1.11567e-13
1.21275e-13
1.30078e-13
1.37989e-13
1.45016e-13
1.51169e-13
1.5646e-13
1.60896e-13
1.64486e-13
1.67239e-13
1.69159e-13
1.7025e-13
1.70515e-13
1.69957e-13
1.68575e-13
1.66372e-13
1.63352e-13
1.59522e-13
1.54896e-13
1.49494e-13
1.43343e-13
1.36484e-13
1.28967e-13
1.20857e-13
1.12233e-13
1.03186e-13
9.38226e-14
8.42632e-14
7.46376e-14
6.50853e-14
5.57509e-14
4.6781e-14
3.83193e-14
3.05016e-14
2.345e-14
1.72664e-14
1.2027e-14
7.77644e-15
4.52331e-15
2.23542e-15
8.33089e-16
1.74112e-16
1.21256e-17
2.77064e-12
5.68155e-12
8.39872e-12
1.09327e-11
1.32646e-11
1.54228e-11
1.74146e-11
1.92455e-11
2.09185e-11
2.24358e-11
2.37991e-11
2.50101e-11
2.60706e-11
2.69822e-11
2.77465e-11
2.83651e-11
2.88391e-11
2.91695e-11
2.93571e-11
2.94022e-11
2.93053e-11
2.90664e-11
2.86857e-11
2.81641e-11
2.7503e-11
2.67045e-11
2.57721e-11
2.47107e-11
2.3527e-11
2.223e-11
2.08308e-11
1.93428e-11
1.7782e-11
1.61669e-11
1.45179e-11
1.28577e-11
1.12103e-11
9.60052e-12
8.05379e-12
6.59486e-12
5.24714e-12
4.03167e-12
2.96605e-12
2.06338e-12
1.33129e-12
7.71076e-13
3.76664e-13
1.33229e-13
1.95439e-14
1.91719e-16
7.31111e-11
1.2313e-10
1.73175e-10
2.22531e-10
2.69032e-10
3.12378e-10
3.52488e-10
3.89393e-10
4.23128e-10
4.53726e-10
4.81219e-10
5.0564e-10
5.27021e-10
5.45396e-10
5.60798e-10
5.73254e-10
5.82791e-10
5.89426e-10
5.93175e-10
5.94045e-10
5.92043e-10
5.87169e-10
5.7943e-10
5.68842e-10
5.55431e-10
5.39243e-10
5.20346e-10
4.98842e-10
4.74867e-10
4.48601e-10
4.2027e-10
3.90147e-10
3.58557e-10
3.25872e-10
2.92509e-10
2.58925e-10
2.25606e-10
1.93058e-10
1.61792e-10
1.32311e-10
1.05086e-10
8.05421e-11
5.90315e-11
4.08111e-11
2.60195e-11
1.46572e-11
6.60404e-12
1.79728e-12
1.41238e-13
9.17748e-16
7.22774e-10
1.01474e-09
1.33397e-09
1.66987e-09
1.99903e-09
2.31179e-09
2.60382e-09
2.87363e-09
3.12073e-09
3.34506e-09
3.54669e-09
3.7258e-09
3.8826e-09
4.01732e-09
4.13017e-09
4.22137e-09
4.29108e-09
4.33944e-09
4.36655e-09
4.37246e-09
4.35721e-09
4.3208e-09
4.26328e-09
4.18475e-09
4.08542e-09
3.96561e-09
3.82583e-09
3.66683e-09
3.48962e-09
3.29553e-09
3.08622e-09
2.86374e-09
2.63046e-09
2.38916e-09
2.14291e-09
1.89508e-09
1.64927e-09
1.4092e-09
1.17864e-09
9.61277e-10
7.60555e-10
5.79545e-10
4.20741e-10
2.85904e-10
1.76012e-10
9.1701e-11
3.46545e-11
6.86837e-12
4.04381e-13
2.45362e-15
4.06393e-09
5.01161e-09
6.17452e-09
7.47606e-09
8.80761e-09
1.01077e-08
1.13414e-08
1.24914e-08
1.35497e-08
1.45131e-08
1.53802e-08
1.6151e-08
1.68259e-08
1.74056e-08
1.78909e-08
1.82827e-08
1.85817e-08
1.87882e-08
1.89028e-08
1.89256e-08
1.88567e-08
1.86961e-08
1.84439e-08
1.81007e-08
1.76672e-08
1.71448e-08
1.65358e-08
1.58434e-08
1.5072e-08
1.42273e-08
1.33167e-08
1.23489e-08
1.13344e-08
1.02851e-08
9.2145e-09
8.13712e-09
7.06854e-09
6.02484e-09
5.02222e-09
4.07641e-09
3.20206e-09
2.41214e-09
1.71739e-09
1.12672e-09
6.49528e-10
3.00252e-10
9.43513e-11
1.54698e-11
8.28803e-13
4.94251e-15
1.58327e-08
1.80095e-08
2.10444e-08
2.4638e-08
2.84645e-08
3.23113e-08
3.6036e-08
3.95543e-08
4.28193e-08
4.58062e-08
4.85029e-08
5.09041e-08
5.30084e-08
5.48163e-08
5.63294e-08
5.75495e-08
5.84782e-08
5.91168e-08
5.94663e-08
5.9527e-08
5.9299e-08
5.87822e-08
5.79768e-08
5.68842e-08
5.55068e-08
5.38489e-08
5.19175e-08
4.97227e-08
4.72784e-08
4.46027e-08
4.17186e-08
3.86538e-08
3.54413e-08
3.21186e-08
2.87279e-08
2.5315e-08
2.19284e-08
1.86183e-08
1.5435e-08
1.24273e-08
9.64165e-09
7.12134e-09
4.90894e-09
3.05308e-09
1.61687e-09
6.63773e-10
1.83634e-10
2.75621e-11
1.42787e-12
8.45355e-15
4.78867e-08
5.19986e-08
5.83725e-08
6.63186e-08
7.50836e-08
8.41404e-08
9.30972e-08
1.0169e-07
1.09751e-07
1.1718e-07
1.23919e-07
1.29939e-07
1.35225e-07
1.39769e-07
1.43572e-07
1.46636e-07
1.48962e-07
1.50551e-07
1.51406e-07
1.51527e-07
1.50911e-07
1.4956e-07
1.47472e-07
1.4465e-07
1.411e-07
1.36834e-07
1.31867e-07
1.26226e-07
1.19945e-07
1.13071e-07
1.05662e-07
9.7788e-08
8.95327e-08
8.09915e-08
7.22707e-08
6.3486e-08
5.476e-08
4.62195e-08
3.79932e-08
3.02102e-08
2.3002e-08
1.651e-08
1.08989e-08
6.36651e-09
3.10546e-09
1.16564e-09
2.99728e-10
4.31904e-11
2.20443e-12
1.29974e-14
1.20884e-07
1.27908e-07
1.39353e-07
1.54392e-07
1.71503e-07
1.89621e-07
2.07901e-07
2.25718e-07
2.42637e-07
2.5837e-07
2.72735e-07
2.85622e-07
2.96969e-07
3.06741e-07
3.14922e-07
3.21505e-07
3.26488e-07
3.29868e-07
3.31646e-07
3.31816e-07
3.30376e-07
3.2732e-07
3.22647e-07
3.16361e-07
3.08472e-07
2.99003e-07
2.87989e-07
2.75485e-07
2.61567e-07
2.46333e-07
2.29911e-07
2.12452e-07
1.94137e-07
1.75173e-07
1.55792e-07
1.36246e-07
1.16805e-07
9.77528e-08
7.93916e-08
6.20457e-08
4.60812e-08
3.19295e-08
2.00906e-08
1.10501e-08
5.04622e-09
1.78583e-09
4.41063e-10
6.2265e-11
3.15208e-12
1.8535e-14
2.66528e-07
2.77626e-07
2.96368e-07
3.21834e-07
3.51533e-07
3.83638e-07
4.16611e-07
4.49237e-07
4.80601e-07
5.1005e-07
5.37137e-07
5.61569e-07
5.8316e-07
6.01795e-07
6.17407e-07
6.29958e-07
6.39422e-07
6.45783e-07
6.49025e-07
6.49134e-07
6.46093e-07
6.39886e-07
6.30505e-07
6.17952e-07
6.02241e-07
5.83412e-07
5.61529e-07
5.36695e-07
5.09053e-07
4.78792e-07
4.46153e-07
4.11432e-07
3.74976e-07
3.3719e-07
2.98527e-07
2.59492e-07
2.20637e-07
1.82575e-07
1.4599e-07
1.11677e-07
8.0577e-08
5.37659e-08
3.23118e-08
1.68994e-08
7.35891e-09
2.50977e-09
6.05825e-10
8.45412e-11
4.2573e-12
2.49835e-14
5.2927e-07
5.46181e-07
5.74886e-07
6.14462e-07
6.61543e-07
7.1333e-07
7.67344e-07
8.21518e-07
8.74205e-07
9.24154e-07
9.70453e-07
1.01246e-06
1.04974e-06
1.08199e-06
1.10904e-06
1.13076e-06
1.14706e-06
1.15788e-06
1.16316e-06
1.16285e-06
1.15691e-06
1.14529e-06
1.12797e-06
1.10492e-06
1.07616e-06
1.04176e-06
1.00181e-06
9.56481e-07
9.06021e-07
8.50757e-07
7.9111e-07
7.27601e-07
6.60856e-07
5.91606e-07
5.20696e-07
4.49092e-07
3.77902e-07
3.08412e-07
2.42135e-07
1.80858e-07
1.26621e-07
8.15002e-08
4.7075e-08
2.36834e-08
9.97947e-09
3.32459e-09
7.91434e-10
1.09651e-10
5.5002e-12
3.22108e-14
9.66346e-07
9.9209e-07
1.0344e-06
1.09138e-06
1.16072e-06
1.23816e-06
1.32002e-06
1.4031e-06
1.48475e-06
1.56286e-06
1.6358e-06
1.70238e-06
1.76172e-06
1.8132e-06
1.85641e-06
1.89103e-06
1.91684e-06
1.93367e-06
1.94138e-06
1.93984e-06
1.92893e-06
1.90853e-06
1.87856e-06
1.83898e-06
1.78977e-06
1.731e-06
1.66281e-06
1.58546e-06
1.49933e-06
1.40495e-06
1.30301e-06
1.19438e-06
1.08014e-06
9.61569e-07
8.40204e-07
7.17871e-07
5.96753e-07
4.79455e-07
3.69056e-07
2.69053e-07
1.83063e-07
1.14153e-07
6.38466e-08
3.1208e-08
1.28569e-08
4.21791e-09
9.94997e-10
1.37173e-10
6.8549e-12
3.99987e-14
1.6448e-06
1.68472e-06
1.74433e-06
1.823e-06
1.9194e-06
2.02826e-06
2.14455e-06
2.26377e-06
2.38201e-06
2.49604e-06
2.60327e-06
2.70168e-06
2.78975e-06
2.86634e-06
2.93062e-06
2.98197e-06
3.0199e-06
3.04404e-06
3.05406e-06
3.04967e-06
3.03059e-06
2.99659e-06
2.94747e-06
2.88309e-06
2.80336e-06
2.70834e-06
2.5982e-06
2.47329e-06
2.33418e-06
2.18168e-06
2.01688e-06
1.8412e-06
1.65645e-06
1.46486e-06
1.26922e-06
1.07289e-06
8.8002e-07
6.95498e-07
5.24902e-07
3.74059e-07
2.48195e-07
1.50744e-07
8.21853e-08
3.93196e-08
1.5953e-08
5.18255e-09
1.21526e-09
1.66984e-10
8.30703e-12
4.81665e-14
2.63523e-06
2.69959e-06
2.78186e-06
2.88729e-06
3.01492e-06
3.16009e-06
3.31643e-06
3.47802e-06
3.63952e-06
3.79635e-06
3.94472e-06
4.08155e-06
4.20442e-06
4.31146e-06
4.4012e-06
4.47252e-06
4.52451e-06
4.55644e-06
4.56766e-06
4.55758e-06
4.52566e-06
4.47142e-06
4.39445e-06
4.29441e-06
4.17109e-06
4.02445e-06
3.85467e-06
3.6622e-06
3.44785e-06
3.21284e-06
2.95889e-06
2.6883e-06
2.40411e-06
2.11017e-06
1.81138e-06
1.51377e-06
1.22461e-06
9.52264e-07
7.05616e-07
4.92962e-07
3.20434e-07
1.90559e-07
1.01785e-07
4.79052e-08
1.92525e-08
6.22741e-09
1.45611e-09
1.99849e-10
9.89022e-12
5.69131e-14
4.00141e-06
4.10924e-06
4.22275e-06
4.36219e-06
4.5239e-06
4.70879e-06
4.90912e-06
5.11744e-06
5.32692e-06
5.53149e-06
5.72596e-06
5.90602e-06
6.0681e-06
6.20935e-06
6.32748e-06
6.42062e-06
6.48724e-06
6.52602e-06
6.53581e-06
6.51553e-06
6.46423e-06
6.38099e-06
6.26502e-06
6.11567e-06
5.93246e-06
5.71519e-06
5.46397e-06
5.17941e-06
4.86263e-06
4.51549e-06
4.1407e-06
3.742e-06
3.32442e-06
2.89448e-06
2.46044e-06
2.0324e-06
1.62213e-06
1.24249e-06
9.06022e-07
6.22941e-07
3.98794e-07
2.33247e-07
1.22496e-07
5.69398e-08
2.28289e-08
7.4119e-09
1.73389e-09
2.37963e-10
1.16167e-11
6.6855e-14
5.78682e-06
5.97051e-06
6.12835e-06
6.30945e-06
6.5107e-06
6.73773e-06
6.98393e-06
7.24081e-06
7.50018e-06
7.75453e-06
7.9972e-06
8.22246e-06
8.42549e-06
8.60222e-06
8.7493e-06
8.8639e-06
8.9436e-06
8.98627e-06
8.99e-06
8.95301e-06
8.87364e-06
8.75035e-06
8.58177e-06
8.36671e-06
8.10428e-06
7.79398e-06
7.43586e-06
7.03067e-06
6.5801e-06
6.08696e-06
5.55554e-06
4.99186e-06
4.40405e-06
3.80267e-06
3.20087e-06
2.61429e-06
2.06043e-06
1.55719e-06
1.1206e-06
7.61767e-07
4.83458e-07
2.78421e-07
1.43864e-07
6.65285e-08
2.69852e-08
8.9361e-09
2.10828e-09
2.91431e-10
1.40105e-11
7.00128e-14
8.00047e-06
8.3098e-06
8.53188e-06
8.76591e-06
9.01547e-06
9.28544e-06
9.57709e-06
9.88144e-06
1.01894e-05
1.0492e-05
1.07813e-05
1.10502e-05
1.12925e-05
1.15027e-05
1.16762e-05
1.18091e-05
1.18977e-05
1.19389e-05
1.19297e-05
1.18673e-05
1.17491e-05
1.15726e-05
1.13356e-05
1.10363e-05
1.06729e-05
1.02448e-05
9.75174e-06
9.19488e-06
8.5767e-06
7.90156e-06
7.17613e-06
6.40983e-06
5.6153e-06
4.80868e-06
4.00955e-06
3.24035e-06
2.52493e-06
1.88621e-06
1.34315e-06
9.07916e-07
6.74726e-07
3.64023e-07
1.88587e-07
8.98195e-08
3.86185e-08
1.40068e-08
3.76313e-09
6.18462e-10
4.46718e-11
2.49988e-13
1.06058e-05
1.11089e-05
1.14231e-05
1.17257e-05
1.20359e-05
1.23512e-05
1.26858e-05
1.30338e-05
1.33856e-05
1.37314e-05
1.40621e-05
1.43692e-05
1.46452e-05
1.48834e-05
1.50776e-05
1.52225e-05
1.53131e-05
1.5345e-05
1.53138e-05
1.52155e-05
1.5046e-05
1.48018e-05
1.44795e-05
1.4076e-05
1.35892e-05
1.30177e-05
1.23612e-05
1.16215e-05
1.08023e-05
9.9102e-06
8.95536e-06
7.95187e-06
6.91839e-06
5.87812e-06
4.85834e-06
3.8889e-06
2.99986e-06
2.21809e-06
1.56351e-06
1.04507e-06
7.6002e-07
4.07283e-07
2.05831e-07
9.8275e-08
4.36648e-08
1.62253e-08
4.35794e-09
7.09924e-10
4.56271e-11
2.75551e-13
1.35177e-05
1.42968e-05
1.47375e-05
1.51282e-05
1.55084e-05
1.58814e-05
1.62563e-05
1.66425e-05
1.70308e-05
1.74117e-05
1.77751e-05
1.81116e-05
1.84126e-05
1.86699e-05
1.8876e-05
1.90241e-05
1.91076e-05
1.91205e-05
1.90568e-05
1.89109e-05
1.86771e-05
1.83504e-05
1.79259e-05
1.73994e-05
1.67678e-05
1.60289e-05
1.5183e-05
1.42323e-05
1.31825e-05
1.20435e-05
1.08299e-05
9.56184e-06
8.26529e-06
6.97175e-06
5.71684e-06
4.53785e-06
3.4702e-06
2.54326e-06
1.77652e-06
1.17516e-06
8.39881e-07
4.44221e-07
2.22624e-07
1.07632e-07
4.91167e-08
1.82694e-08
4.86578e-09
7.97452e-10
5.14962e-11
3.21512e-13
1.66083e-05
1.77489e-05
1.83541e-05
1.88548e-05
1.93175e-05
1.97603e-05
2.01776e-05
2.05954e-05
2.10117e-05
2.14173e-05
2.18026e-05
2.21575e-05
2.24723e-05
2.27378e-05
2.29451e-05
2.30859e-05
2.31519e-05
2.31353e-05
2.30284e-05
2.28235e-05
2.25133e-05
2.20908e-05
2.15496e-05
2.08841e-05
2.009e-05
1.91648e-05
1.81089e-05
1.69259e-05
1.56241e-05
1.42172e-05
1.27255e-05
1.11763e-05
9.60385e-06
8.0486e-06
6.5546e-06
5.16602e-06
3.92253e-06
2.85459e-06
1.97985e-06
1.30026e-06
9.25339e-07
4.87703e-07
2.45938e-07
1.20826e-07
5.56692e-08
1.73367e-08
4.39605e-09
7.58978e-10
4.96103e-11
2.62395e-13
1.97219e-05
2.12976e-05
2.21019e-05
2.2733e-05
2.32899e-05
2.38061e-05
2.42801e-05
2.47249e-05
2.51604e-05
2.55803e-05
2.59758e-05
2.63372e-05
2.6654e-05
2.69163e-05
2.71138e-05
2.72367e-05
2.72751e-05
2.72193e-05
2.70596e-05
2.67865e-05
2.63904e-05
2.58626e-05
2.51947e-05
2.43797e-05
2.34122e-05
2.22895e-05
2.10123e-05
1.9586e-05
1.80219e-05
1.63387e-05
1.45628e-05
1.27294e-05
1.08816e-05
9.06866e-06
7.34258e-06
5.75348e-06
4.34422e-06
3.14531e-06
2.1718e-06
1.42182e-06
1.01038e-06
5.37898e-07
2.7373e-07
1.35802e-07
6.23888e-08
1.87782e-08
5.27707e-09
8.81484e-10
6.31572e-11
4.23283e-13
2.26929e-05
2.47497e-05
2.57765e-05
2.65522e-05
2.72113e-05
2.78028e-05
2.83414e-05
2.88187e-05
2.92651e-05
2.96897e-05
3.00849e-05
3.04419e-05
3.07501e-05
3.09988e-05
3.11769e-05
3.1273e-05
3.12758e-05
3.11736e-05
3.09549e-05
3.0608e-05
3.01214e-05
2.94842e-05
2.86864e-05
2.77194e-05
2.65768e-05
2.52558e-05
2.37577e-05
2.20901e-05
2.02679e-05
1.83146e-05
1.62635e-05
1.41578e-05
1.20491e-05
9.99491e-06
8.05423e-06
6.28193e-06
4.72292e-06
3.407e-06
2.34629e-06
1.53431e-06
1.08732e-06
5.85593e-07
2.99258e-07
1.4875e-07
6.80108e-08
2.06424e-08
5.73532e-09
9.11876e-10
6.8918e-11
4.97638e-13
2.53639e-05
2.79071e-05
2.91619e-05
3.00853e-05
3.08478e-05
3.15133e-05
3.21073e-05
3.26296e-05
3.30867e-05
3.35089e-05
3.38959e-05
3.42401e-05
3.45317e-05
3.47595e-05
3.49116e-05
3.49755e-05
3.49383e-05
3.47867e-05
3.45074e-05
3.40866e-05
3.3511e-05
3.27677e-05
3.18451e-05
3.07331e-05
2.94248e-05
2.79169e-05
2.6212e-05
2.43197e-05
2.22585e-05
2.00572e-05
1.77556e-05
1.54041e-05
1.30622e-05
1.07947e-05
8.66622e-06
6.73519e-06
5.04748e-06
3.63162e-06
2.49671e-06
1.63187e-06
1.15111e-06
6.24956e-07
3.19451e-07
1.58707e-07
7.27003e-08
2.26094e-08
6.20829e-09
9.917e-10
4.53589e-11
3.93168e-14
2.75985e-05
3.05869e-05
3.20527e-05
3.31128e-05
3.39702e-05
3.47027e-05
3.53437e-05
3.59056e-05
3.63825e-05
3.67985e-05
3.71724e-05
3.74992e-05
3.77701e-05
3.79738e-05
3.80976e-05
3.81282e-05
3.80515e-05
3.78527e-05
3.75167e-05
3.70284e-05
3.63724e-05
3.55345e-05
3.45013e-05
3.32618e-05
3.18084e-05
3.01379e-05
2.82539e-05
2.61681e-05
2.39024e-05
2.14901e-05
1.89767e-05
1.64193e-05
1.38838e-05
1.14406e-05
9.1589e-06
7.0994e-06
5.30824e-06
3.81231e-06
2.61781e-06
1.71055e-06
1.20269e-06
6.57008e-07
3.35998e-07
1.67279e-07
7.73494e-08
2.42115e-08
6.79268e-09
1.19168e-09
5.30173e-13
8.08269e-23
2.9289e-05
3.26366e-05
3.42735e-05
3.54442e-05
3.63781e-05
3.71637e-05
3.78409e-05
3.84276e-05
3.89267e-05
3.93415e-05
3.97006e-05
4.00094e-05
4.02598e-05
4.04406e-05
4.05387e-05
4.05399e-05
4.04291e-05
4.01906e-05
3.9808e-05
3.92646e-05
3.85441e-05
3.76307e-05
3.651e-05
3.51703e-05
3.36032e-05
3.18061e-05
2.97831e-05
2.7548e-05
2.51252e-05
2.25519e-05
1.9878e-05
1.71655e-05
1.44851e-05
1.19116e-05
9.51698e-06
7.36361e-06
5.4974e-06
3.94373e-06
2.70628e-06
1.76816e-06
1.24133e-06
6.83828e-07
3.50751e-07
1.75273e-07
8.18444e-08
2.57485e-08
7.62202e-09
1.62143e-09
9.11901e-11
8.488e-23
3.03704e-05
3.39588e-05
3.5711e-05
3.69554e-05
3.79393e-05
3.87591e-05
3.94586e-05
4.00589e-05
4.05684e-05
4.09869e-05
4.13349e-05
4.16288e-05
4.18632e-05
4.20265e-05
4.21055e-05
4.20853e-05
4.19504e-05
4.16842e-05
4.12695e-05
4.06889e-05
3.9925e-05
3.89613e-05
3.77827e-05
3.6377e-05
3.47356e-05
3.28559e-05
3.07429e-05
2.84113e-05
2.58876e-05
2.32114e-05
2.04355e-05
1.7625e-05
1.48537e-05
1.2199e-05
9.73464e-06
7.52366e-06
5.61185e-06
4.02353e-06
2.76084e-06
1.80508e-06
1.26426e-06
7.04106e-07
3.62874e-07
1.8191e-07
8.53263e-08
2.75226e-08
8.48441e-09
1.76517e-09
3.78727e-11
1.74791e-22
3.07792e-05
3.44595e-05
3.62545e-05
3.75247e-05
3.85249e-05
3.93545e-05
4.00595e-05
4.06618e-05
4.11711e-05
4.15894e-05
4.19313e-05
4.22169e-05
4.24431e-05
4.25981e-05
4.26681e-05
4.26383e-05
4.24929e-05
4.22149e-05
4.1787e-05
4.11914e-05
4.04104e-05
3.94272e-05
3.82265e-05
3.67957e-05
3.51265e-05
3.32162e-05
3.10702e-05
2.87036e-05
2.61436e-05
2.34307e-05
2.06189e-05
1.77743e-05
1.49718e-05
1.22896e-05
9.80202e-06
7.57226e-06
5.64594e-06
4.04694e-06
2.77674e-06
1.81574e-06
1.26847e-06
7.13705e-07
3.68739e-07
1.85236e-07
8.70253e-08
2.86033e-08
8.83997e-09
2.01942e-09
3.86177e-10
6.31872e-11
3.04947e-05
3.41054e-05
3.58636e-05
3.71068e-05
3.80863e-05
3.88996e-05
3.95918e-05
4.01841e-05
4.06845e-05
4.10939e-05
4.14337e-05
4.17206e-05
4.19484e-05
4.21054e-05
4.21782e-05
4.2152e-05
4.20113e-05
4.17392e-05
4.13187e-05
4.07322e-05
3.99623e-05
3.89925e-05
3.78078e-05
3.63957e-05
3.4748e-05
3.2862e-05
3.07431e-05
2.84059e-05
2.58774e-05
2.31971e-05
2.04181e-05
1.76056e-05
1.48335e-05
1.21791e-05
9.71601e-06
7.50711e-06
5.59795e-06
4.01266e-06
2.7532e-06
1.80037e-06
1.25057e-06
7.09289e-07
3.66279e-07
1.83715e-07
8.59733e-08
2.80329e-08
8.48676e-09
1.86177e-09
2.19966e-10
6.28038e-12
2.95336e-05
3.29213e-05
3.45668e-05
3.57334e-05
3.66573e-05
3.74298e-05
3.80921e-05
3.86625e-05
3.91442e-05
3.95415e-05
3.98853e-05
4.01806e-05
4.04182e-05
4.05866e-05
4.06728e-05
4.06624e-05
4.05404e-05
4.02907e-05
3.98969e-05
3.93423e-05
3.86103e-05
3.76852e-05
3.65526e-05
3.52008e-05
3.36218e-05
3.18128e-05
2.97786e-05
2.7533e-05
2.5101e-05
2.25201e-05
1.98406e-05
1.71246e-05
1.44429e-05
1.18703e-05
9.47854e-06
7.32957e-06
5.46885e-06
3.92127e-06
2.69012e-06
1.75797e-06
1.21582e-06
6.92031e-07
3.55928e-07
1.77871e-07
8.26826e-08
2.63469e-08
7.61397e-09
1.4174e-09
7.44058e-11
8.60441e-23
2.79529e-05
3.09921e-05
3.24654e-05
3.35165e-05
3.4358e-05
3.50706e-05
3.56895e-05
3.62276e-05
3.66796e-05
3.70719e-05
3.74249e-05
3.77323e-05
3.79848e-05
3.81709e-05
3.82779e-05
3.82923e-05
3.81997e-05
3.79852e-05
3.76335e-05
3.71294e-05
3.64574e-05
3.5603e-05
3.45532e-05
3.32969e-05
3.18266e-05
3.01397e-05
2.824e-05
2.61398e-05
2.38614e-05
2.14387e-05
1.89177e-05
1.63557e-05
1.38188e-05
1.13774e-05
9.10027e-06
7.04762e-06
5.26485e-06
3.77798e-06
2.59232e-06
1.69321e-06
1.16574e-06
6.65886e-07
3.41501e-07
1.6983e-07
7.82483e-08
2.43713e-08
6.82901e-09
1.22472e-09
1.62292e-10
3.1278e-12
2.58039e-05
2.84032e-05
2.96632e-05
3.05731e-05
3.13144e-05
3.19544e-05
3.25205e-05
3.30131e-05
3.34402e-05
3.38348e-05
3.41965e-05
3.45169e-05
3.4786e-05
3.49924e-05
3.51239e-05
3.5168e-05
3.51114e-05
3.49407e-05
3.46423e-05
3.42023e-05
3.36071e-05
3.28439e-05
3.1901e-05
3.07686e-05
2.94398e-05
2.79119e-05
2.6188e-05
2.42781e-05
2.22016e-05
1.99877e-05
1.76768e-05
1.53199e-05
1.29766e-05
1.07116e-05
8.58917e-06
6.66712e-06
4.99036e-06
3.5863e-06
2.46287e-06
1.60896e-06
1.10378e-06
6.34922e-07
3.25136e-07
1.61106e-07
7.35808e-08
2.24437e-08
6.19069e-09
1.09179e-09
1.15499e-10
1.02773e-12
2.31936e-05
2.53051e-05
2.63335e-05
2.70913e-05
2.77252e-05
2.82872e-05
2.87939e-05
2.92377e-05
2.96518e-05
3.00466e-05
3.0414e-05
3.07445e-05
3.10277e-05
3.12526e-05
3.14079e-05
3.1482e-05
3.14632e-05
3.13397e-05
3.10997e-05
3.07314e-05
3.0223e-05
2.95636e-05
2.87431e-05
2.77533e-05
2.65879e-05
2.52445e-05
2.37251e-05
2.20377e-05
2.01981e-05
1.82306e-05
1.61691e-05
1.40572e-05
1.19468e-05
9.89551e-06
7.96187e-06
6.20008e-06
4.65404e-06
3.35244e-06
2.30596e-06
1.5066e-06
1.03325e-06
5.98268e-07
3.06156e-07
1.51854e-07
6.8978e-08
2.06778e-08
5.65848e-09
9.28413e-10
7.56409e-11
3.88849e-13
2.02546e-05
2.1878e-05
2.26795e-05
2.32894e-05
2.38184e-05
2.4303e-05
2.47432e-05
2.51537e-05
2.5557e-05
2.59466e-05
2.63135e-05
2.66476e-05
2.69387e-05
2.71763e-05
2.73502e-05
2.74502e-05
2.74662e-05
2.73883e-05
2.72064e-05
2.69109e-05
2.64921e-05
2.59411e-05
2.52496e-05
2.44106e-05
2.34192e-05
2.2273e-05
2.09732e-05
1.95261e-05
1.79435e-05
1.6245e-05
1.44577e-05
1.26174e-05
1.07676e-05
8.95752e-06
7.23884e-06
5.66105e-06
4.26611e-06
3.08359e-06
2.12767e-06
1.39497e-06
9.48331e-07
5.53835e-07
2.83476e-07
1.4015e-07
6.3591e-08
1.89117e-08
5.21745e-09
8.81675e-10
5.506e-11
1.62847e-13
1.71435e-05
1.83208e-05
1.8919e-05
1.93965e-05
1.98306e-05
2.02416e-05
2.06255e-05
2.1011e-05
2.13967e-05
2.17732e-05
2.21308e-05
2.24594e-05
2.27491e-05
2.29906e-05
2.31749e-05
2.32932e-05
2.33372e-05
2.32988e-05
2.317e-05
2.29431e-05
2.26104e-05
2.2165e-05
2.16004e-05
2.09112e-05
2.00933e-05
1.91447e-05
1.80662e-05
1.68622e-05
1.55416e-05
1.4119e-05
1.26154e-05
1.10588e-05
9.48375e-06
7.9309e-06
6.44404e-06
5.06678e-06
3.83787e-06
2.78658e-06
1.92918e-06
1.26688e-06
8.61446e-07
5.02716e-07
2.55523e-07
1.25837e-07
5.74033e-08
1.71873e-08
4.43322e-09
7.73241e-10
5.13722e-11
2.04193e-13
1.40275e-05
1.4831e-05
1.52613e-05
1.56285e-05
1.59811e-05
1.63242e-05
1.66688e-05
1.7026e-05
1.73867e-05
1.77411e-05
1.80792e-05
1.83916e-05
1.86694e-05
1.89045e-05
1.90891e-05
1.92163e-05
1.92793e-05
1.92718e-05
1.91876e-05
1.90209e-05
1.8766e-05
1.84177e-05
1.79711e-05
1.74222e-05
1.6768e-05
1.60069e-05
1.51393e-05
1.41684e-05
1.31004e-05
1.1946e-05
1.07205e-05
9.44459e-06
8.14486e-06
6.85296e-06
5.60441e-06
4.43606e-06
3.38248e-06
2.47168e-06
1.72159e-06
1.13734e-06
7.71405e-07
4.53221e-07
2.28406e-07
1.10936e-07
5.06011e-08
1.86199e-08
4.84565e-09
8.3438e-10
5.47985e-11
3.3537e-13
1.10671e-05
1.15832e-05
1.1885e-05
1.21655e-05
1.24508e-05
1.27396e-05
1.30485e-05
1.33718e-05
1.36999e-05
1.40228e-05
1.43316e-05
1.46176e-05
1.48733e-05
1.50918e-05
1.5267e-05
1.53933e-05
1.54656e-05
1.54792e-05
1.54296e-05
1.53126e-05
1.51242e-05
1.48605e-05
1.45182e-05
1.40945e-05
1.35872e-05
1.29953e-05
1.23191e-05
1.15607e-05
1.07246e-05
9.81796e-06
8.85161e-06
7.84028e-06
6.80309e-06
5.76356e-06
4.74894e-06
3.78881e-06
2.91251e-06
2.14571e-06
1.50669e-06
1.00356e-06
6.94665e-07
4.11849e-07
2.07184e-07
9.94321e-08
4.46051e-08
1.66629e-08
4.45826e-09
7.20348e-10
4.56456e-11
2.78589e-13
8.39683e-06
8.71031e-06
8.9199e-06
9.13449e-06
9.36294e-06
9.61136e-06
9.88224e-06
1.01666e-05
1.04551e-05
1.07389e-05
1.10101e-05
1.12614e-05
1.14866e-05
1.16802e-05
1.18376e-05
1.19546e-05
1.20276e-05
1.20531e-05
1.20281e-05
1.19496e-05
1.1815e-05
1.16218e-05
1.13676e-05
1.10506e-05
1.06695e-05
1.02236e-05
9.71326e-06
9.13993e-06
8.50666e-06
7.81836e-06
7.08228e-06
6.30841e-06
5.50987e-06
4.7031e-06
3.90783e-06
3.14636e-06
2.44217e-06
1.81762e-06
1.29117e-06
8.73602e-07
5.98738e-07
3.73164e-07
1.90665e-07
9.07717e-08
3.97907e-08
1.45948e-08
3.93906e-09
6.346e-10
4.11046e-11
2.41946e-13
6.11008e-06
6.29231e-06
6.4389e-06
6.60412e-06
6.78869e-06
6.99932e-06
7.22966e-06
7.47112e-06
7.71545e-06
7.9551e-06
8.18341e-06
8.39465e-06
8.58398e-06
8.74731e-06
8.88125e-06
8.9829e-06
9.04973e-06
9.07954e-06
9.07028e-06
9.02006e-06
8.92715e-06
8.78996e-06
8.6071e-06
8.37744e-06
8.10021e-06
7.77511e-06
7.40245e-06
6.98336e-06
6.5199e-06
6.01538e-06
5.47454e-06
4.9039e-06
4.31201e-06
3.70978e-06
3.11055e-06
2.52996e-06
1.98529e-06
1.49417e-06
1.07266e-06
7.317e-07
4.65915e-07
2.68429e-07
1.37752e-07
6.36465e-08
2.62291e-08
8.62495e-09
2.02253e-09
2.82368e-10
1.25758e-11
6.6519e-14
4.25127e-06
4.35503e-06
4.45945e-06
4.58689e-06
4.73642e-06
4.90954e-06
5.09845e-06
5.29555e-06
5.49394e-06
5.68755e-06
5.8712e-06
6.04056e-06
6.19211e-06
6.32299e-06
6.43089e-06
6.5139e-06
6.57042e-06
6.59908e-06
6.59862e-06
6.5679e-06
6.50589e-06
6.41164e-06
6.28435e-06
6.12341e-06
5.92841e-06
5.69931e-06
5.43643e-06
5.14063e-06
4.81336e-06
4.45682e-06
4.0741e-06
3.66933e-06
3.2479e-06
2.81666e-06
2.3841e-06
1.96041e-06
1.55729e-06
1.18717e-06
8.62276e-07
5.93081e-07
3.81515e-07
2.22328e-07
1.16684e-07
5.4695e-08
2.19923e-08
7.13499e-09
1.67808e-09
2.2556e-10
1.10627e-11
6.43584e-14
2.81788e-06
2.87769e-06
2.95333e-06
3.05036e-06
3.16985e-06
3.30717e-06
3.45579e-06
3.60967e-06
3.76344e-06
3.9125e-06
4.05308e-06
4.18212e-06
4.29726e-06
4.39661e-06
4.47873e-06
4.54247e-06
4.58689e-06
4.61121e-06
4.61471e-06
4.59674e-06
4.55674e-06
4.49417e-06
4.40863e-06
4.29979e-06
4.16752e-06
4.01186e-06
3.83315e-06
3.63203e-06
3.40954e-06
3.16715e-06
2.90686e-06
2.63127e-06
2.34369e-06
2.04827e-06
1.75009e-06
1.45539e-06
1.17148e-06
9.06408e-07
6.68377e-07
4.65537e-07
3.02736e-07
1.79799e-07
9.60316e-08
4.53665e-08
1.82697e-08
5.90907e-09
1.38415e-09
1.88896e-10
9.36877e-12
5.45273e-14
1.7706e-06
1.80673e-06
1.86201e-06
1.93537e-06
2.0268e-06
2.13082e-06
2.24225e-06
2.3565e-06
2.46964e-06
2.57844e-06
2.68034e-06
2.77335e-06
2.856e-06
2.92717e-06
2.98605e-06
3.03199e-06
3.06451e-06
3.0832e-06
3.08768e-06
3.07762e-06
3.05273e-06
3.01274e-06
2.95745e-06
2.88671e-06
2.80052e-06
2.69896e-06
2.58233e-06
2.4511e-06
2.30599e-06
2.148e-06
1.97842e-06
1.79886e-06
1.61136e-06
1.41833e-06
1.22274e-06
1.02811e-06
8.387e-07
6.59319e-07
4.94996e-07
3.51132e-07
2.32404e-07
1.40881e-07
7.67138e-08
3.67114e-08
1.49029e-08
4.83995e-09
1.13446e-09
1.55448e-10
7.7334e-12
4.50297e-14
1.04756e-06
1.07068e-06
1.11052e-06
1.16453e-06
1.23116e-06
1.30591e-06
1.38496e-06
1.46506e-06
1.54354e-06
1.61832e-06
1.68781e-06
1.75083e-06
1.80656e-06
1.85442e-06
1.89398e-06
1.92496e-06
1.9471e-06
1.96024e-06
1.96419e-06
1.9588e-06
1.94392e-06
1.91944e-06
1.88527e-06
1.84135e-06
1.78772e-06
1.72447e-06
1.65182e-06
1.5701e-06
1.47981e-06
1.38159e-06
1.27626e-06
1.16483e-06
1.04851e-06
9.28727e-07
8.07139e-07
6.85677e-07
5.66607e-07
4.52568e-07
3.46374e-07
2.51146e-07
1.70144e-07
1.05737e-07
5.8973e-08
2.87662e-08
1.18348e-08
3.8758e-09
9.12056e-10
1.25278e-10
6.23966e-12
3.63365e-14
5.77995e-07
5.9338e-07
6.20908e-07
6.59122e-07
7.04949e-07
7.55418e-07
8.07965e-07
8.60488e-07
9.11342e-07
9.59299e-07
1.00348e-06
1.04329e-06
1.07831e-06
1.10828e-06
1.13302e-06
1.15242e-06
1.16639e-06
1.17485e-06
1.17773e-06
1.17497e-06
1.1665e-06
1.15227e-06
1.13225e-06
1.10642e-06
1.07483e-06
1.03755e-06
9.94726e-07
9.46578e-07
8.93415e-07
8.35637e-07
7.73748e-07
7.08353e-07
6.40167e-07
5.70008e-07
4.98802e-07
4.27581e-07
3.57499e-07
2.89879e-07
2.26144e-07
1.67872e-07
1.16872e-07
7.4857e-08
4.30477e-08
2.1572e-08
9.05864e-09
3.00657e-09
7.1255e-10
9.81949e-11
4.89629e-12
2.85148e-14
2.93351e-07
3.03751e-07
3.22122e-07
3.47134e-07
3.76403e-07
4.0798e-07
4.40279e-07
4.72068e-07
5.02447e-07
5.30786e-07
5.56667e-07
5.79827e-07
6.00101e-07
6.17394e-07
6.3165e-07
6.42833e-07
6.50919e-07
6.55885e-07
6.57707e-07
6.56359e-07
6.51818e-07
6.44062e-07
6.33082e-07
6.1888e-07
6.0148e-07
5.80936e-07
5.57337e-07
5.30813e-07
5.01545e-07
4.69764e-07
4.35757e-07
3.9987e-07
3.62501e-07
3.24105e-07
2.85184e-07
2.4628e-07
2.07971e-07
1.70885e-07
1.35684e-07
1.03074e-07
7.38737e-08
4.89849e-08
2.92645e-08
1.5219e-08
6.59112e-09
2.23495e-09
5.3606e-10
7.42713e-11
3.70986e-12
2.16073e-14
1.34171e-07
1.41e-07
1.52478e-07
1.67493e-07
1.84556e-07
2.0253e-07
2.20546e-07
2.37982e-07
2.54415e-07
2.69579e-07
2.83312e-07
2.95525e-07
3.06168e-07
3.1522e-07
3.22671e-07
3.28517e-07
3.32755e-07
3.35383e-07
3.36392e-07
3.35775e-07
3.33523e-07
3.29628e-07
3.24088e-07
3.16908e-07
3.08102e-07
2.977e-07
2.85751e-07
2.72324e-07
2.57514e-07
2.41444e-07
2.24263e-07
2.06151e-07
1.87316e-07
1.67989e-07
1.48429e-07
1.28907e-07
1.09706e-07
9.11166e-08
7.34325e-08
5.6945e-08
4.19689e-08
2.88621e-08
1.8027e-08
9.84271e-09
4.46182e-09
1.56679e-09
3.83747e-10
5.36741e-11
2.68902e-12
1.56653e-14
5.36344e-08
5.77854e-08
6.43245e-08
7.2382e-08
8.12189e-08
9.02735e-08
9.91488e-08
1.07587e-07
1.15432e-07
1.22599e-07
1.29041e-07
1.34741e-07
1.3969e-07
1.4389e-07
1.47343e-07
1.50053e-07
1.52021e-07
1.53248e-07
1.53734e-07
1.53474e-07
1.52468e-07
1.50712e-07
1.48205e-07
1.44952e-07
1.40958e-07
1.3624e-07
1.30819e-07
1.24729e-07
1.18013e-07
1.1073e-07
1.02947e-07
9.47492e-08
8.62317e-08
7.75023e-08
6.86787e-08
5.98864e-08
5.12534e-08
4.29082e-08
3.49761e-08
2.7574e-08
2.08138e-08
1.48098e-08
9.69119e-09
5.61072e-09
2.71172e-09
1.00799e-09
2.5649e-10
3.65308e-11
1.84028e-12
1.07267e-14
1.79092e-08
2.01872e-08
2.33653e-08
2.70612e-08
3.09574e-08
3.48291e-08
3.85359e-08
4.19998e-08
4.51814e-08
4.80632e-08
5.06394e-08
5.29097e-08
5.48764e-08
5.65427e-08
5.79117e-08
5.8986e-08
5.97673e-08
6.02565e-08
6.04535e-08
6.03575e-08
5.99678e-08
5.92836e-08
5.83051e-08
5.70334e-08
5.54718e-08
5.36262e-08
5.15057e-08
4.91236e-08
4.64973e-08
4.36495e-08
4.06079e-08
3.74055e-08
3.40802e-08
3.06748e-08
2.72358e-08
2.38128e-08
2.04566e-08
1.72178e-08
1.4145e-08
1.12826e-08
8.66977e-09
6.34075e-09
4.32685e-09
2.66297e-09
1.39484e-09
5.65941e-10
1.54583e-10
2.28694e-11
1.1656e-12
6.80251e-15
4.64775e-09
5.67095e-09
6.91065e-09
8.26596e-09
9.63327e-09
1.09488e-08
1.21804e-08
1.33144e-08
1.43463e-08
1.52754e-08
1.61029e-08
1.68305e-08
1.74599e-08
1.79927e-08
1.84303e-08
1.87738e-08
1.90238e-08
1.91807e-08
1.92446e-08
1.92152e-08
1.90924e-08
1.88759e-08
1.85659e-08
1.81628e-08
1.76675e-08
1.70821e-08
1.64096e-08
1.5654e-08
1.48211e-08
1.3918e-08
1.29537e-08
1.19387e-08
1.08852e-08
9.80664e-09
8.71805e-09
7.63521e-09
6.57442e-09
5.55184e-09
4.58307e-09
3.6824e-09
2.86223e-09
2.13264e-09
1.50112e-09
9.73053e-10
5.53809e-10
2.52494e-10
7.81437e-11
1.25892e-11
6.60887e-13
3.86957e-15
8.37063e-10
1.1603e-09
1.50587e-09
1.85921e-09
2.19947e-09
2.51715e-09
2.8093e-09
3.07557e-09
3.31648e-09
3.53271e-09
3.72492e-09
3.89374e-09
4.03969e-09
4.1632e-09
4.26463e-09
4.34425e-09
4.40223e-09
4.43866e-09
4.45357e-09
4.44691e-09
4.41865e-09
4.36874e-09
4.29721e-09
4.20415e-09
4.08981e-09
3.95465e-09
3.79935e-09
3.6249e-09
3.4326e-09
3.22413e-09
3.00154e-09
2.76729e-09
2.52418e-09
2.27537e-09
2.02431e-09
1.77465e-09
1.53016e-09
1.2946e-09
1.07159e-09
8.64476e-10
6.76178e-10
5.09082e-10
3.64911e-10
2.44622e-10
1.4841e-10
7.60951e-11
2.8247e-11
5.48121e-12
3.14563e-13
1.86328e-15
8.59542e-11
1.42454e-10
1.97308e-10
2.49612e-10
2.97911e-10
3.42048e-10
3.82225e-10
4.18667e-10
4.51558e-10
4.81042e-10
5.07235e-10
5.3023e-10
5.50104e-10
5.66921e-10
5.80731e-10
5.91571e-10
5.99465e-10
6.04428e-10
6.06461e-10
6.0556e-10
6.01718e-10
5.94932e-10
5.85202e-10
5.72544e-10
5.56992e-10
5.38607e-10
5.17482e-10
4.93753e-10
4.67597e-10
4.39245e-10
4.08975e-10
3.77121e-10
3.44067e-10
3.10243e-10
2.76119e-10
2.42189e-10
2.08969e-10
1.76969e-10
1.46681e-10
1.18562e-10
9.30119e-11
7.03612e-11
5.08531e-11
3.46296e-11
2.17165e-11
1.20116e-11
5.30083e-12
1.40663e-12
1.06977e-13
6.72038e-16
3.31781e-12