/*--------------------------------*- C++ -*----------------------------------*\
| =========                 |                                                 |
| \\      /  F ield         | foam-extend: Open Source CFD                    |
|  \\    /   O peration     | Version:     4.0                                |
|   \\  /    A nd           | Web:         http://www.foam-extend.org         |
|    \\/     M anipulation  |                                                 |
\*---------------------------------------------------------------------------*/
FoamFile
{
    version     2.0;
    format      ascii;
    class       volScalarField;
    location    "0.0012";
    object      omega;
}
// * * * * * * * * * * * * * * * * * * * * * * * * * * * * * * * * * * * * * //

dimensions      [0 0 -1 0 0 0 0];

internalField   nonuniform List<scalar> 
28770
(
1.87595e+07
1.87595e+07
1.87595e+07
1.87595e+07
1.87595e+07
1.87595e+07
1.87595e+07
1.87595e+07
1.87595e+07
1.87595e+07
1.87595e+07
1.87595e+07
1.87595e+07
1.87595e+07
1.87595e+07
1.87595e+07
1.87595e+07
1.87595e+07
1.87595e+07
1.87595e+07
1.87595e+07
1.87595e+07
1.87595e+07
1.87595e+07
1.87595e+07
1.87595e+07
1.87595e+07
1.87595e+07
1.87595e+07
1.87595e+07
1.87595e+07
1.87595e+07
1.87595e+07
1.87595e+07
1.87595e+07
1.87595e+07
1.87595e+07
1.87595e+07
1.87595e+07
1.87595e+07
1.87595e+07
1.87595e+07
1.87595e+07
1.87595e+07
1.87595e+07
1.87595e+07
1.87595e+07
1.87595e+07
1.87595e+07
1.87595e+07
2.70011e+06
3.18574e+06
3.23008e+06
3.23475e+06
3.23538e+06
3.23549e+06
3.23552e+06
3.23553e+06
3.23554e+06
3.23554e+06
3.23554e+06
3.23554e+06
3.23554e+06
3.23554e+06
3.23554e+06
3.23554e+06
3.23554e+06
3.23554e+06
3.23554e+06
3.23554e+06
3.23554e+06
3.23554e+06
3.23554e+06
3.23554e+06
3.23555e+06
3.23555e+06
3.23555e+06
3.23555e+06
3.23555e+06
3.23555e+06
3.23555e+06
3.23555e+06
3.23556e+06
3.23556e+06
3.23556e+06
3.23556e+06
3.23556e+06
3.23557e+06
3.23557e+06
3.23558e+06
3.2356e+06
3.23562e+06
3.23569e+06
3.23586e+06
3.23645e+06
3.23893e+06
3.25307e+06
3.36212e+06
4.43128e+06
1.79872e+07
679407
1.01713e+06
1.08473e+06
1.09848e+06
1.10156e+06
1.10235e+06
1.10259e+06
1.10267e+06
1.1027e+06
1.10272e+06
1.10272e+06
1.10273e+06
1.10273e+06
1.10273e+06
1.10273e+06
1.10273e+06
1.10273e+06
1.10273e+06
1.10273e+06
1.10273e+06
1.10273e+06
1.10273e+06
1.10273e+06
1.10273e+06
1.10273e+06
1.10273e+06
1.10274e+06
1.10274e+06
1.10274e+06
1.10274e+06
1.10274e+06
1.10274e+06
1.10274e+06
1.10275e+06
1.10275e+06
1.10276e+06
1.10277e+06
1.10279e+06
1.10281e+06
1.10287e+06
1.10298e+06
1.10322e+06
1.10379e+06
1.10531e+06
1.10991e+06
1.12603e+06
1.19192e+06
1.50335e+06
3.24976e+06
1.79872e+07
228608
431004
496273
516080
522232
524267
524998
525284
525407
525464
525492
525507
525515
525520
525523
525525
525526
525527
525528
525528
525529
525529
525530
525531
525531
525532
525534
525535
525537
525540
525544
525549
525556
525567
525583
525609
525651
525722
525847
526078
526528
527467
529568
534666
548180
587437
712735
1.16002e+06
3.12319e+06
1.79872e+07
96110
214072
266515
287529
295779
299084
300465
301073
301356
301496
301568
301608
301630
301644
301652
301657
301661
301663
301665
301666
301668
301669
301670
301672
301674
301676
301679
301682
301688
301695
301704
301718
301739
301769
301815
301887
302004
302199
302535
303141
304280
306534
311243
321671
346213
407822
574731
1.08477e+06
3.10622e+06
1.79872e+07
47913.1
118603
157759
176971
185975
190169
192155
193122
193611
193868
194008
194087
194134
194162
194180
194192
194199
194205
194209
194212
194215
194217
194220
194223
194227
194232
194238
194246
194257
194272
194294
194325
194370
194437
194538
194695
194944
195351
196037
197231
199387
203432
211342
227492
262029
340007
530308
1.06584e+06
3.1032e+06
1.79872e+07
27085.4
71382.1
99969.7
116269
125030
129635
132054
133341
134041
134431
134655
134787
134867
134917
134949
134970
134985
134995
135002
135008
135014
135019
135024
135030
135037
135046
135057
135073
135094
135123
135164
135222
135306
135430
135616
135899
136341
137048
138206
140155
143531
149560
160674
181886
224027
312395
514669
1.06035e+06
3.10248e+06
1.79872e+07
16766.7
45836.2
66759.4
80095
88075.1
92701.2
95352.2
96874
97756.8
98277
98589.7
98781.5
98901.9
98979.1
99029.8
99064
99087.7
99104.7
99117.5
99127.7
99136.6
99145
99153.8
99163.8
99175.9
99191.1
99211
99237.4
99273.3
99322.7
99391.5
99488.6
99627.9
99830.3
100129
100579
101267
102341
104052
106840
111487
119426
133352
158537
205916
300430
508663
1.05852e+06
3.10226e+06
1.79872e+07
11110
31075.3
46532.1
57265.8
64260.9
68654.8
71364
73024.5
74045
74677.5
75074.4
75327.4
75491.2
75599.4
75672.1
75722.1
75757.4
75783.2
75802.8
75818.6
75832.5
75845.7
75859.6
75875.3
75894.3
75918.2
75949.3
75990.6
76046.3
76122.4
76227.8
76375.3
76584.5
76884.9
77322.2
77968.4
78938.2
80417.5
82713.3
86341.3
92185.3
101796
117983
146066
196861
294915
506142
1.05782e+06
3.10218e+06
1.79872e+07
7755.69
22003.7
33608.7
42219.1
48224.7
52253.9
54896.4
56610.1
57718.3
58437.1
58906.6
59216.6
59423.7
59564.1
59660.9
59728.8
59777.6
59813.8
59841.8
59864.7
59884.9
59904.3
59924.7
59947.9
59975.8
60010.8
60056.2
60116.2
60196.7
60305.9
60455.8
60663.8
60955.3
61368.5
61961.4
62822.7
64090.4
65982.4
68847.4
73253.1
80141.8
91118.4
109017
139118
192083
292175
504963
1.0575e+06
3.10215e+06
1.79872e+07
5644.33
16148
25009.7
31952.9
37060.2
40676.5
43174.8
44875.9
46026.4
46803.7
47330.4
47689.6
47936.8
48108.8
48230.1
48317
48380.7
48428.6
48466.3
48497.5
48525.3
48552.3
48580.7
48612.9
48651.7
48700.3
48762.9
48845.1
48954.7
49102.4
49303.4
49579.4
49961.9
50497.2
51253.9
52335.3
53898
56183.2
59567.7
64648.9
72395.9
84426.8
103560
135014
189330
290610
504268
1.0573e+06
3.10212e+06
1.79872e+07
4254.5
12223.3
19129.2
24754.9
29081.3
32285.8
34599.7
36243
37399.1
38209.1
38776.7
39175.6
39457.8
39659
39804
39910.1
39989.2
40049.8
40098.1
40138.7
40175.3
40211
40248.7
40291.5
40342.9
40407
40489.3
40596.8
40739.1
40929.3
41185.8
41534.5
42012.5
42672.8
43593.2
44887.9
46726.8
49366.4
53198.8
58834.8
67248.1
80045.8
100015
132317
187419
289358
503530
1.05696e+06
3.10204e+06
1.79872e+07
3307.39
9508.76
14990.8
19587.3
23256.5
26078.4
28193.9
29752.1
30887
31708.4
32301.6
32730.2
33041.2
33268.1
33435.2
33559.7
33654.3
33728
33787.6
33838.3
33884.5
33929.8
33978
34032.6
34098.1
34179.4
34283.3
34418.1
34595.4
34830.6
35145
35568.2
36141.8
36924.6
38001
39492.8
41578.2
44521.3
48719.9
54785.6
63683
76988.3
97447.8
130165
185552
287634
501914
1.05568e+06
3.10149e+06
1.79872e+07
2644.45
7583.28
12011.6
15803.1
18930.4
21411.9
23331.9
24791.4
25887.2
26703.7
27309.4
27758.4
28091.8
28340.4
28527.1
28668.9
28778.4
28865.1
28936.2
28997.5
29053.9
29109.6
29168.9
29236.3
29316.8
29416.6
29543.2
29706.7
29920.1
30201.1
30573.5
31070
31735.8
32634
33853.3
35520
37815.6
41005.8
45486.2
51861.3
61081.5
74657.7
95282.1
127962
182974
284199
497126
1.04963e+06
3.09628e+06
1.79872e+07
2170.84
6190.24
9829.92
12998.4
15675.6
17859.6
19596.4
20953.2
21999.6
22799.4
23407.5
23868.8
24218.6
24484.7
24688.4
24845.7
24969.1
25068.3
25150.8
25222.8
25289.6
25356.1
25427.1
25507.8
25603.9
25722.6
25872.5
26064.8
26314.3
26640.4
27069
27635.4
28387.2
29390.5
30736.3
32552.5
35020.3
38401.3
43081
49650
59078.6
72703.8
93178.8
125304
178935
277021
482963
1.02053e+06
3.0409e+06
1.79872e+07
1827.36
5167.03
8210.15
10893.5
13200
15129.6
16700.7
17957.4
18949.6
19725.5
20328.4
20795.2
21156.3
21436
21653.7
21824.6
21960.8
22071.7
22165.1
22247.6
22324.8
22402.2
22485
22579.1
22690.9
22828.4
23001.4
23222
23506.5
23875.6
24357.2
24988
25817.8
26913.9
28368.5
30308.9
32913.3
36434.5
41237
47850.8
54503.1
67562
85794.5
113823
159343
239345
397240
770886
2.00891e+06
1.20425e+07
1575.59
4407.2
6995.8
9300.57
11303.9
13017
14442.6
15606.1
16543.6
17291.5
17884.1
18351.4
18719.4
19009.1
19238.2
19420.7
19568.1
19689.8
19793.5
19886
19973.4
20061.3
20155.7
20262.9
20390.1
20545.9
20741
20988.7
21306
21715.2
22245.1
22934
23832.6
25008.8
26554.7
28596
31307
34933.5
39829.7
46522.4
53214.6
66060.3
83983.9
111289
155265
232019
383249
747042
2.01432e+06
1.24057e+07
1389.78
3838.78
6079.43
8088.16
9851.27
11378.3
12676.8
13755.9
14640.9
15359.5
15938.7
16403.1
16774.5
17071.3
17309.3
17501.5
17658.7
17789.9
17903
18004.9
18101.7
18199.8
18305.2
18424.9
18566.7
18739.8
18955.6
19228.3
19575.8
20021.2
20594.3
21334.2
22291.9
23535.6
25156.4
27277.7
30069.8
33771.8
38727.3
45446.9
52154.5
64776.7
82397.1
109072
151841
226455
373631
730662
1.98888e+06
1.23852e+07
1252.23
3412.02
5385.96
7163.81
8736.63
10108.4
11296.1
12301
13137.9
13827.8
14392.2
14851.4
15223.6
15525.2
15770
15970
16135.4
16275
16396.5
16506.9
16612.5
16719.8
16835.5
16966.8
17122
17311
17545.7
17841
18215.4
18692.8
19303.6
20087.1
21094.6
22393.8
24074.5
26257.7
29109.5
32862.3
37849.9
44567.3
51266.8
63677.1
81012.5
107122
148699
233695
388298
766275
2.12115e+06
1.69431e+07
1150.5
3091.83
4861.85
6460.63
7883.45
9132.22
10222.6
11162.8
11956.6
12619.9
13169.5
13622.2
13993.8
14298.2
14548
14754.2
14926.5
15073.2
15202
15319.8
15433.3
15549
15673.9
15815.6
15982.9
16186
16437.5
16752.5
17150.4
17655.3
18297.9
19117.9
20166.4
21510.2
23237.6
25467.2
28360.9
32145
37144.2
43840
50513.3
62725.4
79799.2
105433
146158
229253
379343
745403
2.07781e+06
1.69189e+07
1075.74
2853.07
4468.45
5929.84
7236.04
8389.25
9398.62
10280.9
11038.3
11677.9
12213.8
12659.9
13029.7
13335.6
13589
13800.1
13977.9
14130.6
14265.5
14389.7
14509.9
14632.9
14765.8
14916.6
15094.3
15309.7
15575.4
15907.3
16325
16852.8
17521.8
18371.5
19452.7
20831.3
22594.1
24857.2
27778.6
31578.8
36574.2
43234
49866.8
61887.3
78710.2
103924
143955
225682
373294
739072
2.09763e+06
1.6953e+07
1021.6
2677.71
4177.78
5535.75
6753.21
7832.97
8781.7
9613.43
10338.5
10958.2
11482
11921.9
12289.6
12596.3
12852.2
13066.9
13249
13406.4
13546.3
13675.8
13801.6
13930.6
14070.3
14228.7
14415.1
14640.6
14918.1
15263.8
15697.5
16243.9
16933.9
17806.9
18913.3
20318.2
22106.9
24393.1
27331.2
31136.4
36117
42730.2
49312.2
61134.6
77689.6
102451
141726
221818
366565
725930
2.12994e+06
1.74579e+07
983.573
2552.81
3969.7
5252.47
6404.87
7430.34
8334.83
9128
9824.37
10428
10942.1
11376.8
11742.5
12049.3
12306.9
12524.3
12709.6
12870.6
13014.4
13148
13278.2
13412
13556.9
13721.3
13914.6
14148
14434.8
14791.3
15237.3
15797.8
16503.7
17394.3
18519.4
19943.3
21750
24051.1
26998
30800.8
35760.4
42321.7
48850.8
60458.8
76710.3
100919
139169
216693
356842
694726
2.07368e+06
1.23721e+07
958.494
2469.38
3830.05
5061.72
6169.62
7157.71
8031.68
8799.65
9473.32
10063.2
10570.6
11001.5
11365.6
11672.4
11931.1
12150.2
12337.8
12501.3
12647.9
12784.4
12917.8
13055
13203.8
13372.5
13570.8
13809.9
14103.3
14467.4
14922.3
15492.7
16209.8
17112.5
18250.4
19687
21505.4
23815.5
26766
30563.1
35501.1
42013.5
48500.7
59883
75811.9
99377.7
136276
209903
341513
659503
1.98284e+06
1.17813e+07
944.158
2420.97
3748.63
4950.15
6031.67
6997.51
7853.26
8606.45
9266.95
9846.57
10349.3
10778.1
11141.3
11448
11707.3
11927.5
12116.4
12281.4
12429.7
12568
12703.3
12842.7
12993.8
13165.2
13366.5
13609.1
13906.5
14275.3
14735.5
15312
16035.8
16945.7
18091.1
19535.2
21360.2
23675
26626.5
30418.2
35339.6
41816
48287.5
59460
75108
98066.8
133542
202620
320543
584416
1.28545e+06
5.72111e+06
939.822
2405.55
3722.32
4913.84
5986.57
6944.96
7794.61
8542.89
9199.16
9774.72
10275.7
10704
11066.8
11373.6
11633
11853.5
12042.9
12208.4
12357.2
12496.2
12632.1
12772.2
12924.1
13096.4
13298.7
13542.4
13841.2
14211.6
14673.6
15252.1
15978.1
16890.5
18038.4
19484.9
21312
23628.2
26579.8
30369.3
35284.5
41747.4
48243.6
59258.1
74758
97379.8
132005
198629
307148
524197
963444
1.97649e+06
945.244
2422.45
3750.13
4951.52
6032.86
6998.51
7854.07
8607.09
9267.42
9846.87
10349.6
10778.4
11141.5
11448.3
11707.5
11927.7
12116.5
12281.6
12429.8
12568.1
12703.4
12842.8
12993.9
13165.2
13366.5
13609.1
13906.5
14275.3
14735.5
15311.9
16035.7
16945.6
18091
19535.1
21360.1
23674.8
26626.3
30418
35339.4
41815.6
48376
59326.1
74877
97616.2
132546
201148
315685
562272
1.23862e+06
4.14135e+06
960.631
2472.27
3832.97
5064.37
6171.9
7159.6
8033.2
8800.84
9474.14
10063.8
10571.1
11002
11366
11672.8
11931.4
12150.5
12338.1
12501.6
12648.1
12784.6
12917.9
13055.2
13203.9
13372.6
13570.8
13809.8
14103.2
14467.3
14922.1
15492.6
16209.6
17112.3
18250.1
19686.7
21505.1
23815.2
26765.7
30562.8
35500.6
42012.9
48661.9
59647.7
75425
98668.3
134832
208045
336274
641377
1.64999e+06
1.16219e+07
986.69
2556.99
3973.88
5256.24
6408.08
7432.97
8336.92
9129.55
9825.42
10428.8
10942.9
11377.5
11743.1
12049.8
12307.4
12524.7
12710
12870.9
13014.7
13148.3
13278.4
13412.2
13557.1
13721.4
13914.6
14148
14434.7
14791.1
15237.1
15797.6
16503.4
17393.9
18519
19942.9
21749.6
24050.7
26997.5
30800.3
35759.8
42320.9
49071.1
60154.1
76242.2
100130
137720
215049
353198
688227
1.81335e+06
1.01177e+07
1025.6
2683.01
4183.05
5540.44
6757.14
7836.14
8784.14
9615.12
10339.8
10959.3
11483
11922.7
12290.3
12596.9
12852.8
13067.4
13249.5
13406.8
13546.7
13676.1
13801.9
13930.8
14070.4
14228.8
14415.1
14640.5
14918
15263.7
15697.3
16243.5
16933.5
17806.5
18912.8
20317.7
22106.4
24392.6
27330.7
31135.8
36116.4
42729.3
49580.4
60785
77190.2
101678
140448
220617
365989
716536
1.77879e+06
1.40857e+07
1080.48
2859.31
4474.57
5935.21
7240.46
8392.72
9401.14
10282.7
11039.7
11679.1
12214.8
12660.8
13030.5
13336.3
13589.7
13800.7
13978.4
14131
14265.9
14390
14510.2
14633.1
14765.9
14916.7
15094.4
15309.6
15575.3
15907.1
16324.6
16852.4
17521.3
18371
19452.1
20830.7
22593.5
24856.6
27778
31578.2
36573.5
43233.2
50179.9
61500.2
78190.2
103172
142806
224748
374227
730456
1.96896e+06
1.67623e+07
1155.84
3098.77
4868.55
6466.41
7888.09
9135.71
10225.1
11164.7
11958.2
12621.1
13170.6
13623.2
13994.6
14298.9
14548.6
14754.8
14927
15073.7
15202.4
15320.2
15433.6
15549.2
15674
15815.7
15982.9
16185.9
16437.3
16752.2
17150
17654.8
18297.4
19117.4
20165.8
21509.5
23236.9
25466.5
28360.2
32144.3
37143.5
43839.3
50876.9
62293.4
79240.2
104650
144982
228200
378879
744282
2.05702e+06
1.69045e+07
1258
3419.42
5392.97
7169.71
8741.22
10111.7
11298.5
12303
13139.4
13829.1
14393.3
14852.3
15224.4
15525.9
15770.6
15970.5
16135.9
16275.5
16396.9
16507.2
16612.8
16720
16835.6
16966.9
17122
17310.9
17545.5
17840.7
18215
18692.3
19303
20086.4
21094
22393.1
24073.8
26257
29108.8
32861.6
37849.2
44566.7
51693.3
63184.5
80385.8
106240
147333
232359
385758
759247
2.09513e+06
1.69176e+07
1395.79
3846.34
6086.45
8093.89
9855.53
11381.4
12679.2
13757.7
14642.4
15360.7
15939.7
16403.9
16775.2
17072
17309.9
17502
17659.1
17790.3
17903.4
18005.2
18102
18199.9
18305.3
18425
18566.6
18739.7
18955.4
19228
19575.4
20020.7
20593.8
21333.5
22291.3
23534.9
25155.6
27277
30069.2
33771.1
38726.7
45446.3
52661.4
64205.9
81681.3
108064
150242
223906
368274
716159
1.93306e+06
1.21635e+07
1581.66
4414.66
7002.53
9305.87
11307.6
13019.8
14444.7
15607.7
16544.8
17292.5
17884.9
18352.2
18720
19009.7
19238.7
19421.2
19568.5
19690.1
19793.8
19886.3
19973.6
20061.5
20155.8
20262.9
20390.1
20545.8
20740.8
20988.4
21305.7
21714.7
22244.6
22933.4
23831.9
25008.1
26554
28595.3
31306.3
34932.9
39829.1
46521.9
53826.2
65392.8
83163.4
110143
153490
229111
378412
739955
2.00771e+06
1.24058e+07
1833.29
5174.13
8216.34
10898.2
13203.2
15132
16702.5
17958.8
18950.7
19726.3
20329.1
20795.8
21156.8
21436.4
21654.1
21824.9
21961
22071.9
22165.3
22247.8
22325
22402.3
22485.1
22579.1
22690.9
22828.3
23001.2
23221.8
23506.2
23875.2
24356.7
24987.4
25817.2
26913.3
28367.9
30308.3
32912.7
36434
41236.5
47850.4
55275.2
66782.4
84861.7
112517
157209
235369
389149
755740
2.01696e+06
1.23779e+07
2176.47
6196.75
9835.38
13002.3
15678.3
17861.6
19597.9
20954.3
22000.4
22800
23408
23869.2
24218.9
24485
24688.6
24845.9
24969.3
25068.5
25151
25222.9
25289.7
25356.2
25427.2
25507.8
25603.9
25722.5
25872.3
26064.6
26314
26640.1
27068.6
27634.9
28386.7
29389.9
30735.7
32551.9
35019.8
38400.8
43080.6
49649.7
59078.3
72703.6
93178.7
125304
178934
277021
482962
1.02052e+06
3.0409e+06
1.79872e+07
2649.61
7589.02
12016.2
15806.2
18932.5
21413.4
23333
24792.2
25887.8
26704.1
27309.7
27758.7
28092
28340.6
28527.3
28669.1
28778.6
28865.2
28936.3
28997.6
29053.9
29109.6
29168.9
29236.3
29316.8
29416.5
29543.1
29706.5
29919.9
30200.8
30573.1
31069.6
31735.4
32633.6
33852.8
35519.5
37815.1
41005.4
45485.8
51861
61081.3
74657.5
95282
127962
182974
284199
497126
1.04963e+06
3.09628e+06
1.79872e+07
3311.96
9513.6
14994.4
19589.6
23258.1
26079.5
28194.6
29752.6
30887.3
31708.6
32301.7
32730.3
33041.2
33268.1
33435.2
33559.8
33654.3
33728
33787.6
33838.3
33884.5
33929.8
33978
34032.6
34098
34179.4
34283.2
34418
34595.2
34830.4
35144.7
35567.9
36141.4
36924.3
38000.6
39492.4
41577.8
44520.9
48719.6
54785.4
63682.8
76988.2
97447.7
130165
185552
287634
501914
1.05568e+06
3.10149e+06
1.79872e+07
4258.4
12227.1
19131.9
24756.6
29082.4
32286.5
34600.1
36243.2
37399.2
38209.2
38776.7
39175.6
39457.7
39658.9
39804
39910
39989.2
40049.8
40098.1
40138.7
40175.3
40210.9
40248.7
40291.5
40342.8
40407
40489.2
40596.7
40738.9
40929.1
41185.6
41534.3
42012.2
42672.6
43592.9
44887.6
46726.5
49366.1
53198.6
58834.6
67248
80045.7
100015
132317
187419
289358
503530
1.05696e+06
3.10204e+06
1.79872e+07
5647.48
16150.8
25011.5
31953.9
37060.8
40676.8
43174.9
44876
46026.4
46803.6
47330.3
47689.5
47936.7
48108.7
48230
48316.9
48380.6
48428.6
48466.2
48497.4
48525.3
48552.2
48580.6
48612.9
48651.6
48700.2
48762.8
48845.1
48954.7
49102.4
49303.3
49579.3
49961.7
50497
51253.8
52335.1
53897.8
56183
59567.5
64648.7
72395.8
84426.7
103560
135014
189330
290610
504268
1.0573e+06
3.10212e+06
1.79872e+07
7758.08
22005.5
33609.6
42219.6
48224.9
52253.9
54896.3
56610
57718.1
58436.9
58906.5
59216.4
59423.6
59564
59660.7
59728.7
59777.5
59813.7
59841.7
59864.6
59884.8
59904.3
59924.7
59947.8
59975.7
60010.8
60056.2
60116.2
60196.7
60305.9
60455.8
60663.7
60955.2
61368.5
61961.3
62822.6
64090.3
65982.3
68847.3
73253
80141.7
91118.4
109017
139118
192083
292175
504963
1.0575e+06
3.10215e+06
1.79872e+07
11111.5
31076
46532.2
57265.8
64260.8
68654.6
71363.8
73024.3
74044.8
74677.3
75074.2
75327.2
75491.1
75599.2
75672
75722
75757.3
75783.1
75802.7
75818.6
75832.4
75845.7
75859.6
75875.3
75894.3
75918.2
75949.3
75990.6
76046.3
76122.4
76227.8
76375.4
76584.5
76884.9
77322.2
77968.4
78938.2
80417.4
82713.2
86341.2
92185.2
101796
117983
146066
196861
294915
506142
1.05782e+06
3.10218e+06
1.79872e+07
16767.4
45835.4
66758.8
80094.6
88074.8
92700.9
95351.9
96873.8
97756.6
98276.8
98589.5
98781.3
98901.7
98979
99029.7
99063.9
99087.6
99104.6
99117.4
99127.7
99136.5
99145
99153.8
99163.8
99175.9
99191.1
99211
99237.5
99273.3
99322.7
99391.5
99488.7
99627.9
99830.3
100129
100579
101267
102341
104052
106840
111487
119426
133352
158537
205916
300430
508663
1.05852e+06
3.10226e+06
1.79872e+07
27085.1
71378.3
99968.3
116268
125030
129635
132054
133341
134041
134431
134655
134787
134867
134917
134949
134970
134984
134995
135002
135008
135014
135019
135024
135030
135037
135046
135057
135073
135094
135123
135164
135222
135307
135430
135616
135899
136341
137048
138206
140155
143531
149560
160674
181886
224027
312395
514669
1.06035e+06
3.10248e+06
1.79872e+07
47913
118602
157758
176971
185975
190169
192154
193122
193611
193868
194008
194087
194134
194162
194180
194191
194199
194205
194209
194212
194215
194217
194220
194223
194227
194232
194238
194246
194257
194273
194294
194325
194370
194437
194538
194695
194944
195351
196037
197231
199387
203432
211342
227492
262029
340007
530308
1.06584e+06
3.1032e+06
1.79872e+07
96110
214072
266515
287529
295779
299084
300465
301073
301356
301496
301568
301608
301630
301644
301652
301657
301661
301663
301665
301666
301668
301669
301670
301672
301674
301676
301679
301683
301688
301695
301704
301718
301739
301769
301815
301888
302004
302199
302536
303141
304280
306534
311243
321671
346213
407822
574731
1.08477e+06
3.10622e+06
1.79872e+07
228608
431004
496273
516080
522232
524267
524998
525284
525407
525464
525492
525507
525515
525520
525523
525525
525526
525527
525528
525528
525529
525529
525530
525531
525531
525532
525534
525535
525537
525540
525544
525549
525556
525567
525584
525609
525651
525722
525847
526078
526528
527467
529568
534666
548180
587437
712735
1.16002e+06
3.12319e+06
1.79872e+07
679407
1.01713e+06
1.08473e+06
1.09848e+06
1.10156e+06
1.10235e+06
1.10259e+06
1.10267e+06
1.1027e+06
1.10272e+06
1.10272e+06
1.10273e+06
1.10273e+06
1.10273e+06
1.10273e+06
1.10273e+06
1.10273e+06
1.10273e+06
1.10273e+06
1.10273e+06
1.10273e+06
1.10273e+06
1.10273e+06
1.10273e+06
1.10273e+06
1.10273e+06
1.10274e+06
1.10274e+06
1.10274e+06
1.10274e+06
1.10274e+06
1.10274e+06
1.10274e+06
1.10275e+06
1.10275e+06
1.10276e+06
1.10277e+06
1.10279e+06
1.10281e+06
1.10287e+06
1.10298e+06
1.10322e+06
1.10379e+06
1.10531e+06
1.10991e+06
1.12603e+06
1.19192e+06
1.50335e+06
3.24976e+06
1.79872e+07
2.70011e+06
3.18574e+06
3.23008e+06
3.23475e+06
3.23538e+06
3.23549e+06
3.23552e+06
3.23553e+06
3.23554e+06
3.23554e+06
3.23554e+06
3.23554e+06
3.23554e+06
3.23554e+06
3.23554e+06
3.23554e+06
3.23554e+06
3.23554e+06
3.23554e+06
3.23554e+06
3.23554e+06
3.23554e+06
3.23554e+06
3.23554e+06
3.23555e+06
3.23555e+06
3.23555e+06
3.23555e+06
3.23555e+06
3.23555e+06
3.23555e+06
3.23555e+06
3.23556e+06
3.23556e+06
3.23556e+06
3.23556e+06
3.23557e+06
3.23557e+06
3.23557e+06
3.23558e+06
3.2356e+06
3.23562e+06
3.23569e+06
3.23586e+06
3.23645e+06
3.23893e+06
3.25307e+06
3.36212e+06
4.43128e+06
1.79872e+07
1.87595e+07
1.87595e+07
1.87595e+07
1.87595e+07
1.87595e+07
1.87595e+07
1.87595e+07
1.87595e+07
1.87595e+07
1.87595e+07
1.87595e+07
1.87595e+07
1.87595e+07
1.87595e+07
1.87595e+07
1.87595e+07
1.87595e+07
1.87595e+07
1.87595e+07
1.87595e+07
1.87595e+07
1.87595e+07
1.87595e+07
1.87595e+07
1.87595e+07
1.87595e+07
1.87595e+07
1.87595e+07
1.87595e+07
1.87595e+07
1.87595e+07
1.87595e+07
1.87595e+07
1.87595e+07
1.87595e+07
1.87595e+07
1.87595e+07
1.87595e+07
1.87595e+07
1.87595e+07
1.87595e+07
1.87595e+07
1.87595e+07
1.87595e+07
1.87595e+07
1.87595e+07
1.87595e+07
1.87595e+07
1.87595e+07
1.87595e+07
6.69584e+07
7.59997e+07
6.37663e+07
7.08004e+07
6.44112e+07
6.75636e+07
6.5764e+07
6.53652e+07
6.76752e+07
6.77102e+07
6.76647e+07
6.76526e+07
6.68647e+07
7.06266e+07
6.41539e+07
7.0882e+07
7.18867e+07
6.65976e+07
6.85622e+07
6.76712e+07
3.00781e+06
3.41109e+06
3.2251e+06
3.41842e+06
3.29391e+06
3.35679e+06
3.31113e+06
3.28749e+06
3.32701e+06
3.3235e+06
3.32193e+06
3.31766e+06
3.30065e+06
3.37764e+06
3.21915e+06
3.36802e+06
3.26248e+06
3.30748e+06
3.30737e+06
3.24843e+06
1.05443e+07
1.4994e+07
7.65272e+06
1.14774e+07
9.47023e+06
1.04312e+07
1.22644e+07
1.20552e+07
1.20115e+07
1.19504e+07
1.19507e+07
1.18367e+07
1.19635e+07
1.30964e+07
9.84578e+06
1.78678e+07
1.23807e+07
1.30849e+07
1.2529e+07
1.19185e+07
1.87595e+07
1.87595e+07
1.87595e+07
1.87595e+07
1.87595e+07
1.87595e+07
1.87595e+07
1.87595e+07
1.87595e+07
1.87595e+07
1.87595e+07
1.87595e+07
1.87595e+07
1.87595e+07
1.87595e+07
1.87595e+07
1.87595e+07
1.87595e+07
1.87595e+07
1.87595e+07
1.87595e+07
1.87595e+07
1.87595e+07
1.87595e+07
1.87595e+07
1.87595e+07
1.87595e+07
1.87595e+07
1.87595e+07
1.87595e+07
1.87595e+07
1.87595e+07
1.87595e+07
1.87595e+07
1.87595e+07
1.87595e+07
1.87595e+07
1.87595e+07
1.87595e+07
1.87595e+07
1.87595e+07
1.87595e+07
1.87595e+07
1.87595e+07
1.87595e+07
1.87595e+07
1.87595e+07
1.87595e+07
1.87595e+07
1.87595e+07
1.87595e+07
1.87595e+07
1.87595e+07
1.87595e+07
1.87595e+07
1.87595e+07
1.87595e+07
1.87595e+07
1.87595e+07
1.87595e+07
1.87595e+07
1.87595e+07
1.87595e+07
1.87595e+07
1.87595e+07
1.87595e+07
1.87595e+07
1.87595e+07
1.87595e+07
1.87595e+07
1.87595e+07
1.87595e+07
1.87595e+07
1.87595e+07
1.87595e+07
1.87595e+07
1.87595e+07
1.87595e+07
1.87595e+07
1.87595e+07
1.87595e+07
1.87595e+07
1.87595e+07
1.87595e+07
1.87595e+07
1.87595e+07
1.87595e+07
1.87595e+07
1.87595e+07
1.87595e+07
1.87595e+07
1.87595e+07
1.87595e+07
1.87595e+07
1.87595e+07
1.87595e+07
1.87595e+07
1.87595e+07
1.87595e+07
1.87595e+07
1.79872e+07
4.43128e+06
3.36208e+06
3.25302e+06
3.23888e+06
3.2364e+06
3.23582e+06
3.23564e+06
3.23558e+06
3.23555e+06
3.23554e+06
3.23554e+06
3.23554e+06
3.23553e+06
3.23553e+06
3.23553e+06
3.23553e+06
3.23553e+06
3.23554e+06
3.23554e+06
3.23554e+06
3.23554e+06
3.23554e+06
3.23554e+06
3.23554e+06
3.23554e+06
3.23554e+06
3.23554e+06
3.23554e+06
3.23554e+06
3.23554e+06
3.23554e+06
3.23554e+06
3.23554e+06
3.23554e+06
3.23554e+06
3.23554e+06
3.23554e+06
3.23554e+06
3.23554e+06
3.23554e+06
3.23554e+06
3.23554e+06
3.23554e+06
3.23554e+06
3.23554e+06
3.23554e+06
3.23554e+06
3.23554e+06
3.23554e+06
3.23554e+06
3.23554e+06
3.23554e+06
3.23554e+06
3.23554e+06
3.23554e+06
3.23554e+06
3.23554e+06
3.23554e+06
3.23554e+06
3.23554e+06
3.23554e+06
3.23554e+06
3.23554e+06
3.23554e+06
3.23554e+06
3.23554e+06
3.23554e+06
3.23554e+06
3.23554e+06
3.23554e+06
3.23554e+06
3.23554e+06
3.23554e+06
3.23554e+06
3.23554e+06
3.23554e+06
3.23554e+06
3.23554e+06
3.23554e+06
3.23554e+06
3.23554e+06
3.23554e+06
3.23554e+06
3.23554e+06
3.23554e+06
3.23554e+06
3.23554e+06
3.23554e+06
3.23554e+06
3.23554e+06
3.23554e+06
3.23554e+06
3.23554e+06
3.23554e+06
3.23554e+06
3.23554e+06
3.23554e+06
3.23554e+06
3.23554e+06
1.79872e+07
3.2498e+06
1.50335e+06
1.1919e+06
1.126e+06
1.10988e+06
1.10528e+06
1.10376e+06
1.10319e+06
1.10296e+06
1.10285e+06
1.10279e+06
1.10276e+06
1.10275e+06
1.10274e+06
1.10273e+06
1.10273e+06
1.10273e+06
1.10273e+06
1.10273e+06
1.10273e+06
1.10273e+06
1.10273e+06
1.10273e+06
1.10273e+06
1.10273e+06
1.10273e+06
1.10273e+06
1.10273e+06
1.10273e+06
1.10273e+06
1.10273e+06
1.10273e+06
1.10273e+06
1.10273e+06
1.10273e+06
1.10273e+06
1.10273e+06
1.10273e+06
1.10273e+06
1.10273e+06
1.10273e+06
1.10273e+06
1.10273e+06
1.10273e+06
1.10273e+06
1.10273e+06
1.10273e+06
1.10273e+06
1.10273e+06
1.10273e+06
1.10273e+06
1.10273e+06
1.10273e+06
1.10273e+06
1.10273e+06
1.10273e+06
1.10273e+06
1.10273e+06
1.10273e+06
1.10273e+06
1.10273e+06
1.10273e+06
1.10273e+06
1.10273e+06
1.10273e+06
1.10273e+06
1.10273e+06
1.10273e+06
1.10273e+06
1.10273e+06
1.10273e+06
1.10273e+06
1.10273e+06
1.10273e+06
1.10273e+06
1.10273e+06
1.10273e+06
1.10273e+06
1.10273e+06
1.10273e+06
1.10273e+06
1.10273e+06
1.10273e+06
1.10273e+06
1.10273e+06
1.10273e+06
1.10273e+06
1.10273e+06
1.10273e+06
1.10273e+06
1.10273e+06
1.10273e+06
1.10273e+06
1.10273e+06
1.10273e+06
1.10273e+06
1.10273e+06
1.10273e+06
1.10273e+06
1.79872e+07
3.12325e+06
1.16004e+06
712736
587424
548160
534642
529542
527442
526505
526056
525827
525704
525635
525595
525570
525556
525546
525540
525536
525534
525532
525531
525530
525530
525529
525529
525529
525528
525528
525528
525528
525528
525528
525528
525528
525528
525528
525528
525528
525528
525528
525528
525528
525528
525528
525528
525528
525528
525528
525528
525528
525528
525527
525527
525527
525527
525527
525527
525527
525527
525527
525527
525527
525527
525527
525527
525527
525527
525527
525527
525527
525527
525527
525527
525527
525527
525527
525527
525527
525527
525527
525527
525527
525527
525527
525527
525527
525527
525527
525527
525527
525527
525527
525527
525527
525527
525527
525527
525527
1.79872e+07
3.10628e+06
1.08481e+06
574747
407824
346204
321656
311225
306515
304261
303123
302520
302185
301993
301878
301808
301764
301735
301716
301704
301695
301689
301685
301681
301679
301677
301676
301674
301673
301673
301672
301671
301671
301670
301670
301670
301670
301669
301669
301669
301669
301669
301669
301669
301668
301668
301668
301668
301668
301668
301668
301668
301667
301667
301667
301667
301667
301667
301667
301667
301667
301666
301666
301666
301666
301666
301666
301666
301666
301666
301666
301666
301666
301666
301666
301666
301666
301666
301666
301666
301666
301666
301666
301666
301666
301666
301666
301666
301666
301666
301666
301666
301666
301666
301666
301666
301666
301666
301666
301666
1.79872e+07
3.10326e+06
1.06588e+06
530335
340022
262033
227488
211334
203421
199376
197221
196029
195346
194942
194696
194543
194444
194380
194337
194307
194287
194272
194261
194253
194247
194242
194238
194235
194232
194230
194228
194226
194225
194224
194223
194222
194221
194221
194220
194220
194219
194219
194219
194218
194218
194218
194218
194217
194217
194217
194216
194216
194216
194216
194215
194215
194215
194215
194214
194214
194214
194214
194214
194214
194214
194214
194214
194214
194214
194214
194214
194213
194213
194213
194213
194213
194213
194213
194213
194213
194213
194213
194213
194214
194214
194214
194214
194214
194214
194214
194214
194214
194214
194214
194214
194214
194214
194214
194214
194214
1.79872e+07
3.10255e+06
1.0604e+06
514704
312420
224043
181894
160678
149561
143533
140159
138214
137060
136358
135921
135642
135461
135341
135259
135203
135163
135133
135112
135095
135082
135072
135064
135057
135051
135046
135042
135038
135035
135033
135031
135029
135028
135026
135025
135025
135024
135023
135022
135022
135021
135021
135020
135020
135019
135019
135018
135018
135017
135017
135016
135016
135015
135015
135015
135014
135014
135014
135014
135014
135013
135013
135013
135013
135013
135013
135013
135013
135013
135013
135013
135013
135013
135013
135013
135013
135013
135013
135013
135013
135013
135013
135013
135013
135013
135013
135013
135013
135013
135013
135014
135014
135014
135014
135014
135014
1.79872e+07
3.10234e+06
1.05857e+06
508704
300465
205943
158559
133370
119443
111507
106864
104083
102379
101314
100634
100192
99899.2
99701.9
99566.4
99471.3
99403.1
99353
99315.2
99285.9
99262.8
99244
99228.5
99215.6
99204.8
99195.6
99187.9
99181.4
99175.9
99171.3
99167.5
99164.2
99161.5
99159.3
99157.4
99155.7
99154.3
99153.1
99151.9
99150.9
99149.9
99149
99148.1
99147.2
99146.4
99145.5
99144.7
99143.9
99143.2
99142.5
99141.8
99141.1
99140.5
99140
99139.5
99139.1
99138.7
99138.4
99138.1
99137.9
99137.7
99137.5
99137.4
99137.2
99137.2
99137.1
99137
99137
99137
99136.9
99136.9
99136.9
99136.9
99136.9
99136.9
99136.9
99136.9
99136.9
99137
99137
99137
99137
99137.1
99137.1
99137.2
99137.3
99137.3
99137.4
99137.5
99137.6
99137.7
99137.7
99137.8
99137.9
99138
99138
1.79872e+07
3.10226e+06
1.05787e+06
506188
294957
196899