/*--------------------------------*- C++ -*----------------------------------*\
| =========                 |                                                 |
| \\      /  F ield         | foam-extend: Open Source CFD                    |
|  \\    /   O peration     | Version:     4.0                                |
|   \\  /    A nd           | Web:         http://www.foam-extend.org         |
|    \\/     M anipulation  |                                                 |
\*---------------------------------------------------------------------------*/
FoamFile
{
    version     2.0;
    format      ascii;
    class       surfaceScalarField;
    location    "0.0012";
    object      phi;
}
// * * * * * * * * * * * * * * * * * * * * * * * * * * * * * * * * * * * * * //

dimensions      [0 3 -1 0 0 0 0];

internalField   nonuniform List<scalar> 
57362
(
6.18259e-11
3.67155e-15
6.18149e-11
1.10707e-14
6.17962e-11
1.86389e-14
6.17697e-11
2.64913e-14
6.1735e-11
3.47474e-14
6.16914e-11
4.35321e-14
6.16385e-11
5.29777e-14
6.15752e-11
6.32257e-14
6.15008e-11
7.44286e-14
6.1414e-11
8.67516e-14
6.13137e-11
1.00375e-13
6.11982e-11
1.15496e-13
6.10658e-11
1.32331e-13
6.09147e-11
1.51117e-13
6.07426e-11
1.72116e-13
6.05469e-11
1.95615e-13
6.0325e-11
2.2193e-13
6.00736e-11
2.51404e-13
5.97891e-11
2.84417e-13
5.94677e-11
3.21374e-13
5.9105e-11
3.62729e-13
5.8696e-11
4.08942e-13
5.82354e-11
4.60556e-13
5.77173e-11
5.18056e-13
5.71352e-11
5.82102e-13
5.6482e-11
6.53132e-13
5.57501e-11
7.31969e-13
5.4931e-11
8.18857e-13
5.40163e-11
9.14881e-13
5.29962e-11
1.01982e-12
5.18612e-11
1.13518e-12
5.06009e-11
1.25985e-12
4.92052e-11
1.39602e-12
4.76636e-11
1.54107e-12
4.59659e-11
1.69814e-12
4.41026e-11
1.86254e-12
4.20648e-11
2.03834e-12
3.98454e-11
2.21858e-12
3.74382e-11
2.40776e-12
3.48403e-11
2.59711e-12
3.20503e-11
2.79042e-12
2.90713e-11
2.97831e-12
2.5909e-11
3.16271e-12
2.25737e-11
3.33485e-12
1.90795e-11
3.4945e-12
1.54448e-11
3.63436e-12
1.16922e-11
3.75281e-12
7.8475e-12
3.84454e-12
3.93981e-12
3.90781e-12
3.93982e-12
6.18268e-11
7.28861e-15
6.18159e-11
2.19772e-14
6.17975e-11
3.70014e-14
6.17714e-11
5.25904e-14
6.17372e-11
6.89811e-14
6.16943e-11
8.64218e-14
6.16421e-11
1.05176e-13
6.15798e-11
1.25524e-13
6.15064e-11
1.47769e-13
6.14209e-11
1.7224e-13
6.1322e-11
1.99295e-13
6.12082e-11
2.29327e-13
6.10777e-11
2.62766e-13
6.09287e-11
3.00085e-13
6.0759e-11
3.41806e-13
6.05661e-11
3.88498e-13
6.03473e-11
4.40793e-13
6.00993e-11
4.99375e-13
5.98187e-11
5.65006e-13
5.95015e-11
6.38489e-13
5.91435e-11
7.20739e-13
5.87397e-11
8.1267e-13
5.82849e-11
9.15379e-13
5.77731e-11
1.02983e-12
5.71978e-11
1.15737e-12
5.6552e-11
1.29885e-12
5.58281e-11
1.45597e-12
5.50176e-11
1.6292e-12
5.41119e-11
1.82077e-12
5.31013e-11
2.03019e-12
5.19761e-11
2.26067e-12
5.07259e-11
2.50976e-12
4.93402e-11
2.78225e-12
4.78083e-11
3.07246e-12
4.61199e-11
3.3874e-12
4.42651e-11
3.7168e-12
4.22344e-11
4.07014e-12
4.00205e-11
4.43189e-12
3.76165e-11
4.81303e-12
3.50193e-11
5.19381e-12
3.22269e-11
5.58411e-12
2.92421e-11
5.96287e-12
2.60703e-11
6.33577e-12
2.27215e-11
6.68361e-12
1.921e-11
7.00696e-12
1.55544e-11
7.29018e-12
1.17776e-11
7.5304e-12
7.90604e-12
7.71646e-12
3.96958e-12
7.84491e-12
7.90987e-12
6.18473e-11
1.07985e-14
6.18367e-11
3.25607e-14
6.18189e-11
5.48207e-14
6.17935e-11
7.79181e-14
6.17603e-11
1.02205e-13
6.17187e-11
1.28049e-13
6.1668e-11
1.5584e-13
6.16075e-11
1.85997e-13
6.15363e-11
2.18968e-13
6.14533e-11
2.55243e-13
6.13573e-11
2.95354e-13
6.12467e-11
3.39883e-13
6.112e-11
3.89473e-13
6.09752e-11
4.44825e-13
6.08103e-11
5.06718e-13
6.06228e-11
5.76002e-13
6.04099e-11
6.53618e-13
6.01687e-11
7.40589e-13
5.98956e-11
8.38052e-13
5.95869e-11
9.47214e-13
5.92382e-11
1.06945e-12
5.88447e-11
1.20612e-12
5.84012e-11
1.35889e-12
5.79017e-11
1.52921e-12
5.734e-11
1.71911e-12
5.67087e-11
1.92991e-12
5.60006e-11
2.16419e-12
5.52069e-11
2.42265e-12
5.4319e-11
2.70878e-12
5.3327e-11
3.02177e-12
5.22211e-11
3.3667e-12
5.09905e-11
3.73974e-12
4.96245e-11
4.14852e-12
4.81118e-11
4.5842e-12
4.64415e-11
5.05798e-12
4.46032e-11
5.55391e-12
4.25865e-11
6.08709e-12
4.03834e-11
6.63355e-12
3.79858e-11
7.21063e-12
3.539e-11
7.78807e-12
3.25929e-11
8.38116e-12
2.95963e-11
8.95792e-12
2.64051e-11
9.52678e-12
2.30288e-11
1.00586e-11
1.94817e-11
1.05537e-11
1.57827e-11
1.09882e-11
1.19557e-11
1.13571e-11
8.02812e-12
1.16433e-11
4.03167e-12
1.1841e-11
1.1941e-11
6.18683e-11
1.4149e-14
6.18582e-11
4.26637e-14
6.18412e-11
7.18314e-14
6.1817e-11
1.02098e-13
6.17853e-11
1.33925e-13
6.17455e-11
1.67795e-13
6.16971e-11
2.04222e-13
6.16394e-11
2.43753e-13
6.15714e-11
2.8698e-13
6.14921e-11
3.34545e-13
6.14003e-11
3.87148e-13
6.12946e-11
4.45558e-13
6.11734e-11
5.10619e-13
6.1035e-11
5.83259e-13
6.08772e-11
6.64504e-13
6.06977e-11
7.55477e-13
6.04939e-11
8.57425e-13
6.02627e-11
9.71703e-13
6.0001e-11
1.09982e-12
5.97048e-11
1.24338e-12
5.937e-11
1.40422e-12
5.89919e-11
1.58416e-12
5.85654e-11
1.78543e-12
5.80846e-11
2.00997e-12
5.75432e-11
2.26055e-12
5.69341e-11
2.53891e-12
5.62498e-11
2.84864e-12
5.54816e-11
3.19061e-12
5.4621e-11
3.56981e-12
5.36575e-11
3.98493e-12
5.25814e-11
4.44343e-12
5.13811e-11
4.93956e-12
5.00458e-11
5.485e-12
4.85631e-11
6.06623e-12
4.69214e-11
6.70131e-12
4.51093e-11
7.36522e-12
4.31149e-11
8.08375e-12
4.09294e-11
8.81826e-12
3.85425e-11
9.60031e-12
3.59498e-11
1.03802e-11
3.31458e-11
1.11881e-11
3.01319e-11
1.19718e-11
2.69115e-11
1.27498e-11
2.34938e-11
1.34767e-11
1.98932e-11
1.41565e-11
1.61286e-11
1.47535e-11
1.22256e-11
1.52619e-11
8.21323e-12
1.56566e-11
4.12586e-12
1.59297e-11
1.6068e-11
6.18895e-11
1.729e-14
6.188e-11
5.21351e-14
6.18641e-11
8.77796e-14
6.18414e-11
1.24769e-13
6.18117e-11
1.63669e-13
6.17744e-11
2.0507e-13
6.1729e-11
2.49602e-13
6.16748e-11
2.97937e-13
6.1611e-11
3.50799e-13
6.15366e-11
4.08977e-13
6.14504e-11
4.73332e-13
6.13511e-11
5.44807e-13
6.12373e-11
6.24443e-13
6.11072e-11
7.13383e-13
6.09588e-11
8.12892e-13
6.07899e-11
9.24358e-13
6.0598e-11
1.04932e-12
6.03802e-11
1.18947e-12
6.01333e-11
1.34667e-12
5.98537e-11
1.52293e-12
5.95374e-11
1.72052e-12
5.91798e-11
1.94174e-12
5.87758e-11
2.18939e-12
5.83197e-11
2.46592e-12
5.78055e-11
2.77484e-12
5.72258e-11
3.11837e-12
5.65734e-11
3.50113e-12
5.58393e-11
3.92424e-12
5.50151e-11
4.39426e-12
5.40899e-11
4.90943e-12
5.30537e-11
5.47983e-12
5.18944e-11
6.09777e-12
5.06005e-11
6.7793e-12
4.91587e-11
7.50636e-12
4.75563e-11
8.30398e-12
4.57807e-11
9.1387e-12
4.38181e-11
1.00463e-11
4.16584e-11
1.09754e-11
3.92889e-11
1.19694e-11
3.67033e-11
1.29629e-11
3.3894e-11
1.39966e-11
3.08602e-11
1.50027e-11
2.76036e-11
1.60052e-11
2.41322e-11
1.69454e-11
2.04601e-11
1.78273e-11
1.66069e-11
1.86045e-11
1.25997e-11
1.92679e-11
8.47029e-12
1.97843e-11
4.25677e-12
2.0142e-11
2.03235e-11
6.19295e-11
2.01753e-14
6.19208e-11
6.08358e-14
6.19061e-11
1.02431e-13
6.18853e-11
1.45599e-13
6.1858e-11
1.91e-13
6.18237e-11
2.39328e-13
6.1782e-11
2.91317e-13
6.17322e-11
3.47756e-13
6.16735e-11
4.09493e-13
6.1605e-11
4.77455e-13
6.15257e-11
5.52652e-13
6.14343e-11
6.36194e-13
6.13294e-11
7.29303e-13
6.12095e-11
8.33328e-13
6.10726e-11
9.49761e-13
6.09167e-11
1.08024e-12
6.07394e-11
1.22661e-12
6.0538e-11
1.39084e-12
6.03095e-11
1.57517e-12
6.00504e-11
1.78199e-12
5.97569e-11
2.01404e-12
5.94245e-11
2.27406e-12
5.90485e-11
2.56544e-12
5.86232e-11
2.89113e-12
5.81428e-11
3.25545e-12
5.75999e-11
3.66108e-12
5.69875e-11
4.11383e-12
5.62965e-11
4.61495e-12
5.55185e-11
5.17298e-12
5.4642e-11
5.78537e-12
5.36573e-11
6.46576e-12
5.25508e-11
7.20343e-12
5.1311e-11
8.02122e-12
4.99228e-11
8.8933e-12
4.83727e-11
9.85744e-12
4.66457e-11
1.0864e-11
4.4726e-11
1.19708e-11
4.26018e-11
1.30978e-11
4.02554e-11
1.43215e-11
3.76811e-11
1.55361e-11
3.48645e-11
1.68192e-11
3.18051e-11
1.8062e-11
2.85018e-11
1.93139e-11
2.49608e-11
2.04874e-11
2.11968e-11
2.15958e-11
1.72286e-11
2.25744e-11
1.30865e-11
2.34134e-11
8.80495e-12
2.40678e-11
4.42736e-12
2.45224e-11
2.47531e-11
6.19688e-11
2.27612e-14
6.1961e-11
6.86341e-14
6.19479e-11
1.15564e-13
6.19292e-11
1.64271e-13
6.19047e-11
2.15505e-13
6.18739e-11
2.70049e-13
6.18365e-11
3.28736e-13
6.17918e-11
3.92458e-13
6.17391e-11
4.6218e-13
6.16776e-11
5.3895e-13
6.16064e-11
6.23919e-13
6.15242e-11
7.18347e-13
6.14299e-11
8.2363e-13
6.13219e-11
9.41304e-13
6.11986e-11
1.07308e-12
6.1058e-11
1.22083e-12
6.08979e-11
1.38665e-12
6.07159e-11
1.57284e-12
6.05091e-11
1.78198e-12
6.02742e-11
2.01682e-12
6.00077e-11
2.28054e-12
5.97053e-11
2.57634e-12
5.93626e-11
2.90822e-12
5.89739e-11
3.27962e-12
5.85337e-11
3.69569e-12
5.80349e-11
4.15961e-12
5.74704e-11
4.67842e-12
5.68311e-11
5.25362e-12
5.61087e-11
5.89576e-12
5.52911e-11
6.60175e-12
5.43686e-11
7.38877e-12
5.33266e-11
8.24362e-12
5.21528e-11
9.19556e-12
5.0831e-11
1.02124e-11
4.93456e-11
1.13432e-11
4.76805e-11
1.25254e-11
4.58165e-11
1.38346e-11
4.37399e-11
1.51701e-11
4.14293e-11
1.66308e-11
3.88751e-11
1.80853e-11
3.60603e-11
1.96316e-11
3.29786e-11
2.11384e-11
2.96259e-11
2.26637e-11
2.60055e-11
2.41027e-11
2.21306e-11
2.54676e-11
1.80211e-11
2.66796e-11
1.37093e-11
2.77223e-11
9.23455e-12
2.85392e-11
4.64662e-12
2.91077e-11
2.93969e-11
6.20068e-11
2.50084e-14
6.2e-11
7.54113e-14
6.19886e-11
1.26978e-13
6.19723e-11
1.80504e-13
6.1951e-11
2.36812e-13
6.19243e-11
2.96769e-13
6.18918e-11
3.61291e-13
6.18528e-11
4.31365e-13
6.1807e-11
5.08057e-13
6.17534e-11
5.92527e-13
6.16912e-11
6.86047e-13
6.16196e-11
7.9002e-13
6.15372e-11
9.0599e-13
6.14428e-11
1.03567e-12
6.13349e-11
1.18096e-12
6.12118e-11
1.34397e-12
6.10714e-11
1.52703e-12
6.09115e-11
1.73273e-12
6.07295e-11
1.96397e-12
6.05224e-11
2.22385e-12
6.0287e-11
2.51601e-12
6.00192e-11
2.84407e-12
5.97149e-11
3.21262e-12
5.93688e-11
3.62563e-12
5.89756e-11
4.0891e-12
5.85283e-11
4.60671e-12
5.80204e-11
5.18685e-12
5.74423e-11
5.83122e-12
5.67864e-11
6.55279e-12
5.60397e-11
7.34753e-12
5.51933e-11
8.23743e-12
5.423e-11
9.20519e-12
5.31393e-11
1.02903e-11
5.19003e-11
1.14487e-11
5.04989e-11
1.2751e-11
4.89137e-11
1.41069e-11
4.71231e-11
1.56344e-11
4.51117e-11
1.71773e-11
4.28473e-11
1.89066e-11
4.03255e-11
2.06041e-11
3.75117e-11
2.24573e-11
3.44037e-11
2.42462e-11
3.09925e-11
2.60854e-11
2.72762e-11
2.78212e-11
2.32697e-11
2.94825e-11
1.89887e-11
3.09641e-11
1.44718e-11
3.22457e-11
9.76084e-12
3.32541e-11
4.91567e-12
3.39578e-11
3.43168e-11
6.20618e-11
2.68831e-14
6.20561e-11
8.10652e-14
6.20466e-11
1.36502e-13
6.20331e-11
1.9405e-13
6.20153e-11
2.54599e-13
6.1993e-11
3.19081e-13
6.19658e-11
3.88489e-13
6.19332e-11
4.63887e-13
6.18949e-11
5.46429e-13
6.185e-11
6.37371e-13
6.1798e-11
7.38094e-13
6.17379e-11
8.50118e-13
6.16687e-11
9.75127e-13
6.15894e-11
1.11498e-12
6.14986e-11
1.27177e-12
6.13948e-11
1.44777e-12
6.12762e-11
1.64558e-12
6.11409e-11
1.86802e-12
6.09865e-11
2.11831e-12
6.08105e-11
2.39988e-12
6.06097e-11
2.71677e-12
6.03806e-11
3.07306e-12
6.01194e-11
3.47387e-12
5.98211e-11
3.92374e-12
5.94808e-11
4.42948e-12
5.90917e-11
4.99536e-12
5.86477e-11
5.63107e-12
5.81392e-11
6.33876e-12
5.75589e-11
7.13362e-12
5.68934e-11
8.01133e-12
5.61336e-11
8.99809e-12
5.52618e-11
1.00741e-11
5.42659e-11
1.12871e-11
5.31249e-11
1.25855e-11
5.18207e-11
1.40559e-11
5.0332e-11
1.559e-11
4.86312e-11
1.73346e-11
4.67014e-11
1.91001e-11
4.45053e-11
2.10998e-11
4.2031e-11
2.30703e-11
3.92436e-11
2.52394e-11
3.61256e-11
2.73549e-11
3.26625e-11
2.9542e-11
2.88465e-11
3.16279e-11
2.46879e-11
3.36345e-11
2.02037e-11
3.54404e-11
1.54338e-11
3.70099e-11
1.04283e-11
3.82533e-11
5.25751e-12
3.91237e-11
3.95693e-11
6.21141e-11
2.83558e-14
6.21097e-11
8.55076e-14
6.21022e-11
1.43986e-13
6.20916e-11
2.04699e-13
6.20776e-11
2.68586e-13
6.206e-11
3.36637e-13
6.20386e-11
4.09902e-13
6.2013e-11
4.89511e-13
6.19827e-11
5.76688e-13
6.19473e-11
6.72771e-13
6.19062e-11
7.79228e-13
6.18586e-11
8.97681e-13
6.18038e-11
1.02993e-12
6.17408e-11
1.17796e-12
6.16686e-11
1.34401e-12
6.15858e-11
1.53055e-12
6.1491e-11
1.74036e-12
6.13825e-11
1.97649e-12
6.12584e-11
2.24243e-12
6.11163e-11
2.54194e-12
6.09537e-11
2.87942e-12
6.07673e-11
3.25937e-12
6.05539e-11
3.68746e-12
6.03087e-11
4.16875e-12
6.00277e-11
4.71085e-12
5.9704e-11
5.31868e-12
5.93328e-11
6.00322e-12
5.89036e-11
6.76713e-12
5.8411e-11
7.62803e-12
5.78395e-11
8.58118e-12
5.71833e-11
9.65794e-12
5.64196e-11
1.08347e-11
5.5542e-11
1.21715e-11
5.45197e-11
1.36025e-11
5.33422e-11
1.52447e-11
5.19757e-11
1.69485e-11
5.03945e-11
1.89327e-11
4.85779e-11
2.09072e-11
4.64657e-11
2.32337e-11
4.40702e-11
2.54584e-11
4.13028e-11
2.80291e-11
3.81665e-11
3.04908e-11
3.46439e-11
3.30836e-11
3.07086e-11
3.55681e-11
2.63778e-11
3.79802e-11
2.1653e-11
4.01721e-11
1.65861e-11
4.20881e-11
1.12286e-11
4.3618e-11
5.66839e-12
4.46925e-11
4.5245e-11
6.2163e-11
2.94034e-14
6.21598e-11
8.86679e-14
6.21545e-11
1.49313e-13
6.21469e-11
2.12281e-13
6.2137e-11
2.78552e-13
6.21245e-11
3.49155e-13
6.21092e-11
4.25186e-13
6.20909e-11
5.07824e-13
6.20692e-11
5.98346e-13
6.20438e-11
6.98151e-13
6.20143e-11
8.08776e-13
6.198e-11
9.31923e-13
6.19405e-11
1.06948e-12
6.18949e-11
1.22355e-12
6.18424e-11
1.39647e-12
6.17821e-11
1.59088e-12
6.17127e-11
1.8097e-12
6.1633e-11
2.0562e-12
6.15413e-11
2.33411e-12
6.14357e-11
2.64745e-12
6.13142e-11
3.00096e-12
6.11739e-11
3.39953e-12
6.10122e-11
3.84931e-12
6.08247e-11
4.35592e-12
6.06081e-11
4.92766e-12
6.03559e-11
5.57023e-12
6.00639e-11
6.29568e-12
5.97221e-11
7.10762e-12
5.93254e-11
8.02552e-12
5.88588e-11
9.0454e-12
5.83157e-11
1.02023e-11
5.76745e-11
1.14719e-11
5.69254e-11
1.29222e-11
5.60405e-11
1.44813e-11
5.50013e-11
1.62851e-11
5.37787e-11
1.81629e-11
5.23349e-11
2.03755e-11
5.06515e-11
2.25806e-11
4.86621e-11
2.52178e-11
4.63628e-11
2.77457e-11
4.36852e-11
3.06961e-11
4.05846e-11
3.35755e-11
3.70315e-11
3.66237e-11
3.29928e-11
3.95905e-11
2.84711e-11
4.24892e-11
2.34724e-11
4.51567e-11
1.8043e-11
4.75066e-11
1.22488e-11
4.94015e-11
6.19362e-12
5.07389e-11
5.14301e-11
6.22266e-11
3.0009e-14
6.22248e-11
9.04954e-14
6.22217e-11
1.52395e-13
6.22173e-11
2.16673e-13
6.22115e-11
2.84334e-13
6.22043e-11
3.56432e-13
6.21953e-11
4.34091e-13
6.21846e-11
5.18523e-13
6.2172e-11
6.1104e-13
6.2157e-11
7.13082e-13
6.21396e-11
8.26234e-13
6.21192e-11
9.52253e-13
6.20956e-11
1.09309e-12
6.20682e-11
1.25093e-12
6.20365e-11
1.4282e-12
6.19997e-11
1.62764e-12
6.19571e-11
1.85231e-12
6.19077e-11
2.10565e-12
6.18503e-11
2.39155e-12
6.17834e-11
2.71429e-12
6.17056e-11
3.07888e-12
6.16144e-11
3.49057e-12
6.1508e-11
3.9559e-12
6.13827e-11
4.48106e-12
6.12359e-11
5.07493e-12
6.10615e-11
5.74405e-12
6.08571e-11
6.50135e-12
6.06118e-11
7.35169e-12
6.0324e-11
8.31597e-12
5.9975e-11
9.39173e-12
5.95658e-11
1.0617e-11
5.90647e-11
1.19678e-11
5.84769e-11
1.35204e-11
5.77531e-11
1.51956e-11
5.69002e-11
1.71564e-11
5.58551e-11
1.91926e-11
5.46047e-11
2.16553e-11
5.311e-11
2.40546e-11
5.12654e-11
2.71021e-11
4.91565e-11
2.98364e-11
4.6528e-11
3.33642e-11
4.34177e-11
3.66869e-11
3.9834e-11
4.0239e-11
3.56681e-11
4.37675e-11
3.09446e-11
4.72372e-11
2.56245e-11
5.04911e-11
1.97759e-11
5.33738e-11
1.34638e-11
5.57266e-11
6.82125e-12
5.73951e-11
5.82632e-11
6.22851e-11
3.01619e-14
6.22846e-11
9.0958e-14
6.22838e-11
1.53179e-13
6.22827e-11
2.17798e-13
6.22812e-11
2.85829e-13
6.22793e-11
3.58336e-13
6.22769e-11
4.36455e-13
6.2274e-11
5.2141e-13
6.22705e-11
6.14532e-13
6.22663e-11
7.1728e-13
6.22613e-11
8.31264e-13
6.22553e-11
9.58268e-13
6.22481e-11
1.10028e-12
6.22395e-11
1.25953e-12
6.22292e-11
1.43852e-12
6.22168e-11
1.64003e-12
6.22019e-11
1.86723e-12
6.21838e-11
2.12366e-12
6.2162e-11
2.41337e-12
6.21354e-11
2.7408e-12
6.21032e-11
3.11119e-12
6.20635e-11
3.53008e-12
6.20152e-11
4.00434e-12
6.19552e-11
4.54068e-12
6.1882e-11
5.14841e-12
6.17902e-11
5.835e-12
6.16783e-11
6.61397e-12
6.15365e-11
7.49181e-12
6.13636e-11
8.49016e-12
6.11428e-11
9.60929e-12
6.08735e-11
1.08884e-11
6.05286e-11
1.23073e-11
6.01061e-11
1.39458e-11
5.95671e-11
1.57263e-11
5.89006e-11
1.78256e-11
5.80624e-11
2.00193e-11
5.70086e-11
2.2709e-11
5.57196e-11
2.53296e-11
5.40723e-11
2.87416e-11
5.21234e-11
3.17701e-11
4.97374e-11
3.57314e-11
4.67881e-11
3.96078e-11
4.32362e-11
4.37671e-11
3.89975e-11
4.79779e-11
3.40547e-11
5.21567e-11
2.8384e-11
5.61372e-11
2.20241e-11
5.97142e-11
1.50591e-11
6.2674e-11
7.6492e-12
6.47913e-11
6.58998e-11
6.23374e-11
2.98585e-14
6.23383e-11
9.00445e-14
6.23399e-11
1.51645e-13
6.2342e-11
2.15628e-13
6.23449e-11
2.82999e-13
6.23484e-11
3.54818e-13
6.23526e-11
4.32215e-13
6.23576e-11
5.16408e-13
6.23634e-11
6.08726e-13
6.23701e-11
7.10624e-13
6.23777e-11
8.23713e-13
6.23861e-11
9.49781e-13
6.23956e-11
1.09082e-12
6.24061e-11
1.24908e-12
6.24175e-11
1.42706e-12
6.24299e-11
1.6276e-12
6.24433e-11
1.8539e-12
6.24574e-11
2.10956e-12
6.24721e-11
2.3987e-12
6.24869e-11
2.7259e-12
6.25017e-11
3.09651e-12
6.25153e-11
3.51634e-12
6.25275e-11
3.99243e-12
6.25359e-11
4.53199e-12
6.25404e-11
5.14456e-12
6.2536e-11
5.83865e-12
6.25237e-11
6.62783e-12
6.2493e-11
7.52088e-12
6.24478e-11
8.53875e-12
6.23668e-11
9.68666e-12
6.22614e-11
1.1001e-11
6.20889e-11
1.24721e-11
6.18768e-11
1.41722e-11
6.15444e-11
1.60439e-11
6.11461e-11
1.82508e-11
6.0546e-11
2.05926e-11
5.98144e-11
2.34875e-11
5.88072e-11
2.62946e-11
5.74021e-11
3.02178e-11
5.59674e-11
3.31592e-11
5.36348e-11
3.81307e-11
5.05936e-11
4.26607e-11
4.71271e-11
4.72807e-11
4.2819e-11
5.23118e-11
3.76904e-11
5.73225e-11
3.16156e-11
6.22407e-11
2.46697e-11
6.66895e-11
1.69408e-11
7.04252e-11
8.62981e-12
7.31221e-11
7.45467e-11
6.2402e-11
2.91019e-14
6.24042e-11
8.77641e-14
6.24081e-11
1.47809e-13
6.24135e-11
2.10184e-13
6.24206e-11
2.75872e-13
6.24295e-11
3.4591e-13
6.24404e-11
4.21406e-13
6.24532e-11
5.03556e-13
6.24683e-11
5.93661e-13
6.24857e-11
6.93155e-13
6.25058e-11
8.03621e-13
6.25288e-11
9.26823e-13
6.25549e-11
1.06473e-12
6.25844e-11
1.21956e-12
6.26177e-11
1.39381e-12
6.2655e-11
1.59029e-12
6.26967e-11
1.81219e-12
6.27431e-11
2.06313e-12
6.27946e-11
2.34722e-12
6.28513e-11
2.66911e-12
6.29137e-11
3.03418e-12
6.29815e-11
3.44841e-12
6.30552e-11
3.9189e-12
6.31335e-11
4.45329e-12
6.32173e-11
5.06113e-12
6.33031e-11
5.75195e-12
6.33927e-11
6.53909e-12
6.3478e-11
7.43362e-12
6.3563e-11
8.45545e-12
6.36309e-11
9.61495e-12
6.36897e-11
1.09453e-11
6.37076e-11
1.24476e-11
6.3698e-11
1.41865e-11
6.36056e-11
1.61254e-11
6.34467e-11
1.8416e-11
6.3139e-11
2.08841e-11
6.26684e-11
2.39638e-11
6.19756e-11
2.69668e-11
6.08065e-11
3.13807e-11
5.95233e-11
3.44324e-11
5.78443e-11
2.17019e-11
1.80786e-11
5.53367e-11
2.06784e-11
2.44342e-11
5.20073e-11
2.34024e-11
2.71659e-11
4.77091e-11
2.64498e-11
3.01108e-11
4.23742e-11
2.95763e-11
3.30374e-11
3.5903e-11
3.27546e-11
3.59094e-11
2.8263e-11
3.58019e-11
3.84883e-11
1.9541e-11
3.85268e-11
4.05874e-11
9.99545e-12
4.06712e-11
4.19712e-11
4.20378e-11
4.24826e-11
6.24567e-11
2.79022e-14
6.24603e-11
8.41475e-14
6.24664e-11
1.41723e-13
6.24751e-11
2.01538e-13
6.24864e-11
2.6454e-13
6.25006e-11
3.31728e-13
6.25178e-11
4.04169e-13
6.25384e-11
4.83015e-13
6.25625e-11
5.69524e-13
6.25906e-11
6.65082e-13
6.2623e-11
7.7122e-13
6.26602e-11
8.89649e-13
6.27026e-11
1.02228e-12
6.27509e-11
1.17128e-12
6.28056e-11
1.33907e-12
6.28675e-11
1.5284e-12
6.29373e-11
1.74241e-12
6.30158e-11
1.98465e-12
6.31039e-11
2.25917e-12
6.32024e-11
2.5706e-12
6.33124e-11
2.92424e-12
6.34345e-11
3.32617e-12
6.35704e-11
3.78337e-12
6.37195e-11
4.30383e-12
6.38845e-11
4.89685e-12
6.40627e-11
5.57295e-12
6.42588e-11
6.34469e-12
6.44646e-11
7.22589e-12
6.46901e-11
8.23374e-12
6.49145e-11
9.38617e-12
6.51607e-11
1.07073e-11
6.53794e-11
1.22196e-11
6.56245e-11
1.39581e-11
6.5782e-11
1.59487e-11
6.59863e-11
1.82447e-11
6.59615e-11
2.08705e-11
6.60788e-11
2.39112e-11
6.559e-11
2.73777e-11
6.56987e-11
3.14041e-11
3.2747e-11
3.59954e-11
3.12204e-11
-1.85201e-11
1.92211e-11
3.23741e-11
-3.05409e-11
2.99598e-11
2.12099e-11
-2.95727e-11
2.88053e-11
2.41619e-11
-2.80923e-11
2.71219e-11
2.74383e-11
-2.61053e-11
2.48269e-11
3.08862e-11
-2.34371e-11
2.1809e-11
3.44166e-11
-2.00174e-11
1.80358e-11
3.78093e-11
-1.58685e-11
1.35432e-11
4.08684e-11
-1.10467e-11
8.42215e-12
4.33063e-11
-5.67657e-12
2.86014e-12
4.48638e-11
6.25104e-11
2.62766e-14
6.25153e-11
7.9246e-14
6.25236e-11
1.33471e-13
6.25353e-11
1.89812e-13
6.25507e-11
2.49164e-13
6.25699e-11
3.1247e-13
6.25934e-11
3.80741e-13
6.26213e-11
4.55068e-13
6.26542e-11
5.36644e-13
6.26925e-11
6.26782e-13
6.27368e-11
7.26939e-13
6.27877e-11
8.38744e-13
6.2846e-11
9.64022e-13
6.29124e-11
1.10483e-12
6.2988e-11
1.2635e-12
6.30737e-11
1.44266e-12
6.31708e-11
1.64533e-12
6.32805e-11
1.87495e-12
6.34043e-11
2.13541e-12
6.35436e-11
2.43125e-12
6.37003e-11
2.7676e-12
6.38759e-11
3.15047e-12
6.40728e-11
3.58662e-12
6.4292e-11
4.08419e-12
6.45372e-11
4.6521e-12
6.48077e-11
5.30155e-12
6.51092e-11
6.04419e-12
6.5437e-11
6.896e-12
6.58011e-11
7.87169e-12
6.61881e-11
8.99518e-12
6.66158e-11
1.02835e-11
6.70527e-11
1.17752e-11
6.75334e-11
1.34843e-11
6.79873e-11
1.54814e-11
6.84899e-11
1.77544e-11
6.88762e-11
2.04606e-11
6.93488e-11
2.34618e-11
6.94634e-11
2.72185e-11
6.99181e-11
3.10023e-11
3.57601e-11
3.65797e-11
3.34763e-11
-1.93935e-11
1.98208e-11
3.55551e-11
-3.32055e-11
3.27795e-11
-2.20475e-11
2.23749e-11
-3.2514e-11
3.19082e-11
-2.52121e-11
2.57649e-11
-3.13236e-11
3.04595e-11
-2.87231e-11
2.95664e-11
-2.95175e-11
2.82815e-11
-3.24678e-11
3.37058e-11
-2.69168e-11
2.51873e-11
-3.62988e-11
3.80435e-11
-2.32352e-11
2.10742e-11
-4.00958e-11
4.22644e-11
-1.8653e-11
1.60123e-11
-4.35391e-11
4.61793e-11
-1.31284e-11
1.005e-11
-4.62808e-11
4.93573e-11
-6.79738e-12
3.43048e-12
-4.79973e-11
5.13681e-11
6.25622e-11
2.42485e-14
6.25684e-11
7.31308e-14
6.25787e-11
1.23175e-13
6.25933e-11
1.75177e-13
6.26125e-11
2.29965e-13
6.26366e-11
2.88413e-13
6.26658e-11
3.51459e-13
6.27008e-11
4.20114e-13
6.2742e-11
4.95485e-13
6.279e-11
5.78794e-13
6.28455e-11
6.71397e-13
6.29094e-11
7.74811e-13
6.29827e-11
8.9074e-13
6.30664e-11
1.02111e-12
6.31619e-11
1.16809e-12
6.32703e-11
1.33418e-12
6.33935e-11
1.5222e-12
6.35331e-11
1.73538e-12
6.36911e-11
1.97744e-12
6.38696e-11
2.25267e-12
6.40714e-11
2.56595e-12
6.42987e-11
2.92309e-12
6.45551e-11
3.33049e-12
6.48428e-11
3.79622e-12
6.5167e-11
4.32861e-12
6.55284e-11
4.93926e-12
6.59357e-11
5.63864e-12
6.63853e-11
6.44442e-12
6.68922e-11
7.36853e-12
6.7443e-11
8.44008e-12
6.80654e-11
9.6688e-12
6.87237e-11
1.11077e-11
6.94717e-11
1.27517e-11
7.02265e-11
1.47085e-11
7.10923e-11
1.6918e-11
7.18934e-11
1.96246e-11
7.28188e-11
2.25893e-11
7.3546e-11
2.64283e-11
7.43135e-11
3.03229e-11
3.87011e-11
3.59998e-11
3.609e-11
-1.98038e-11
1.98965e-11
3.87596e-11
-3.62181e-11
3.60146e-11
-2.29262e-11
2.30712e-11
-3.5931e-11
3.55494e-11
-2.65232e-11
2.68893e-11
-3.5146e-11
3.4488e-11
-3.06126e-11
3.12883e-11
-3.37e-11
3.26139e-11
-3.51248e-11
3.62581e-11
-3.14497e-11
2.95395e-11
-3.97288e-11
4.17162e-11
-2.7302e-11
2.50073e-11
-4.46039e-11
4.69416e-11
-2.23198e-11
1.93299e-11
-4.91294e-11
5.2138e-11
-1.59673e-11
1.22989e-11
-5.28122e-11
5.64879e-11
-8.35732e-12
4.22929e-12
-5.51329e-11
5.92671e-11
6.26095e-11
2.18483e-14
6.26167e-11
6.58926e-14
6.26289e-11
1.10986e-13
6.26462e-11
1.57848e-13
6.2669e-11
2.07227e-13
6.26975e-11
2.59914e-13
6.27322e-11
3.16755e-13
6.27736e-11
3.78667e-13
6.28225e-11
4.46653e-13
6.28795e-11
5.21821e-13
6.29455e-11
6.05403e-13
6.30215e-11
6.98778e-13
6.31087e-11
8.03495e-13
6.32085e-11
9.21312e-13
6.33224e-11
1.05422e-12
6.34521e-11
1.20449e-12
6.35996e-11
1.37471e-12
6.37672e-11
1.56787e-12
6.39573e-11
1.78737e-12
6.41727e-11
2.03722e-12
6.44168e-11
2.32189e-12
6.46929e-11
2.64688e-12
6.50055e-11
3.01807e-12
6.53581e-11
3.44321e-12
6.57573e-11
3.92993e-12
6.6206e-11
4.4897e-12
6.67139e-11
5.13182e-12
6.72817e-11
5.87462e-12
6.79247e-11
6.72767e-12
6.8638e-11
7.72297e-12
6.9446e-11
8.86494e-12
7.03313e-11
1.02153e-11
7.13343e-11
1.17563e-11
7.24115e-11
1.36186e-11
7.36305e-11
1.57124e-11
7.48963e-11
1.83366e-11
7.63185e-11
2.11918e-11
7.77129e-11
2.4995e-11
7.92058e-11
2.88764e-11
4.16477e-11
3.45666e-11
3.89239e-11
-1.96664e-11
1.94224e-11
4.1991e-11
-3.95537e-11
3.96294e-11
-2.32898e-11
2.31796e-11
-3.98116e-11
3.97391e-11
-2.73123e-11
2.73901e-11
-3.95965e-11
3.92864e-11
-3.20491e-11
3.23968e-11
-3.86654e-11
3.80842e-11
-3.76491e-11
3.83044e-11
-1.8854e-11
-2.26503e-11
1.81407e-11
2.30026e-11
-1.65424e-11
-2.63329e-11
1.58e-11
2.68164e-11
-1.34812e-11
-2.95118e-11
1.25038e-11
3.03084e-11
-9.34034e-12
-3.2071e-11
8.11068e-12
3.31873e-11
-4.22002e-12
3.49057e-11
-3.3553e-11
2.82096e-12
6.26514e-11
1.91118e-14
6.26597e-11
5.76402e-14
6.26736e-11
9.70885e-14
6.26933e-11
1.38087e-13
6.27193e-11
1.81292e-13
6.27518e-11
2.27398e-13
6.27914e-11
2.77148e-13
6.28387e-11
3.31346e-13
6.28945e-11
3.90877e-13
6.29596e-11
4.56713e-13
6.30351e-11
5.29939e-13
6.31221e-11
6.11772e-13
6.3222e-11
7.0358e-13
6.33364e-11
8.06917e-13
6.34671e-11
9.23543e-13
6.36161e-11
1.05548e-12
6.37858e-11
1.20502e-12
6.39789e-11
1.37483e-12
6.41983e-11
1.56794e-12
6.44476e-11
1.78796e-12
6.47307e-11
2.03888e-12
6.50518e-11
2.32569e-12
6.54165e-11
2.65365e-12
6.58295e-11
3.02991e-12
6.62988e-11
3.46126e-12
6.68292e-11
3.95855e-12
6.74327e-11
4.52987e-12
6.81125e-11
5.19309e-12
6.88874e-11
5.95596e-12
6.97561e-11
6.8506e-12
7.07486e-11
7.87879e-12
7.18531e-11
9.10339e-12
7.31176e-11
1.05039e-11
7.45102e-11
1.22118e-11
7.61025e-11
1.41418e-11
7.78339e-11
1.65801e-11
7.97869e-11
1.92742e-11
8.1888e-11
2.28534e-11
8.4143e-11
2.66729e-11
4.46346e-11
3.20764e-11
4.19408e-11
-1.89131e-11
1.83014e-11
4.53156e-11
-4.31627e-11
4.3583e-11
-2.30178e-11
2.25739e-11
-4.41252e-11
4.44403e-11
-2.73822e-11
2.70777e-11
-4.47182e-11
4.4792e-11
-3.26332e-11
3.25939e-11
-4.46631e-11
4.42619e-11
-3.88139e-11
3.92659e-11
-2.28092e-11
-2.41138e-11
2.2184e-11
2.44004e-11
-2.05821e-11
-2.86123e-11
1.9843e-11
2.91697e-11
-1.72648e-11
-3.31602e-11
1.61904e-11
3.41387e-11
-1.23138e-11
-3.71534e-11
1.07989e-11
3.86181e-11
-5.6767e-12
4.15122e-11
-3.96756e-11
3.82159e-12
6.26893e-11
1.60806e-14
6.26984e-11
4.84987e-14
6.27138e-11
8.16922e-14
6.27357e-11
1.16192e-13
6.27645e-11
1.52553e-13
6.28005e-11
1.9136e-13
6.28444e-11
2.33239e-13
6.28969e-11
2.78872e-13
6.29588e-11
3.29003e-13
6.3031e-11
3.84457e-13
6.31148e-11
4.46152e-13
6.32115e-11
5.15117e-13
6.33226e-11
5.92514e-13
6.34498e-11
6.79662e-13
6.35953e-11
7.78057e-13
6.37614e-11
8.89419e-13
6.39507e-11
1.01571e-12
6.41664e-11
1.1592e-12
6.44118e-11
1.3225e-12
6.46911e-11
1.50869e-12
6.50089e-11
1.7212e-12
6.53701e-11
1.96437e-12
6.57812e-11
2.24271e-12
6.62483e-11
2.56251e-12
6.67805e-11
2.92957e-12
6.73846e-11
3.35364e-12
6.8074e-11
3.84147e-12
6.8856e-11
4.40952e-12
6.97501e-11
5.06382e-12
7.0763e-11
5.83462e-12
7.19238e-11
6.72167e-12
7.32363e-11
7.78512e-12
7.47437e-11
9.00315e-12
7.64436e-11
1.05017e-11
7.83966e-11
1.22003e-11
8.05923e-11
1.43678e-11
8.31011e-11
1.67843e-11
8.59149e-11
2.00136e-11
8.90637e-11
2.35538e-11
4.75696e-11
2.85052e-11
4.50262e-11
-1.74696e-11
1.64807e-11
4.86085e-11
-4.6934e-11
4.77697e-11
-2.19838e-11
2.11274e-11
-4.87678e-11
4.95912e-11
-2.65732e-11
2.57578e-11
-5.04403e-11
5.11147e-11
-3.22937e-11
3.16442e-11
-5.16786e-11
5.19598e-11
-3.93875e-11
3.91381e-11
-2.73902e-11
-2.5086e-11
2.69533e-11
2.52034e-11
-2.58743e-11
-3.08454e-11
2.52463e-11
3.133e-11
-2.2797e-11
-3.7337e-11
2.16502e-11
3.84305e-11
-1.7038e-11
-4.36869e-11
1.50975e-11
4.56143e-11
-8.14513e-12
5.07294e-11
-4.80974e-11
5.51207e-12
6.27206e-11
1.28009e-14
6.27305e-11
3.86075e-14
6.27472e-11
6.50323e-14
6.27708e-11
9.24989e-14
6.2802e-11
1.21449e-13
6.2841e-11
1.52349e-13
6.28885e-11
1.85701e-13
6.29453e-11
2.22046e-13
6.30124e-11
2.61981e-13
6.30907e-11
3.06164e-13
6.31815e-11
3.55329e-13
6.32863e-11
4.10302e-13
6.34068e-11
4.72012e-13
6.3545e-11
5.41518e-13
6.3703e-11
6.2002e-13
6.38836e-11
7.08902e-13
6.40895e-11
8.09739e-13
6.43244e-11
9.24375e-13
6.4592e-11
1.0549e-12
6.48969e-11
1.20382e-12
6.52443e-11
1.37391e-12
6.56399e-11
1.5687e-12
6.6091e-11
1.79186e-12
6.66047e-11
2.04858e-12
6.71913e-11
2.34353e-12
6.78594e-11
2.68486e-12
6.86241e-11
3.07802e-12
6.94954e-11
3.53689e-12
7.04954e-11
4.06629e-12
7.16353e-11
4.6919e-12
7.29482e-11
5.41354e-12
7.4446e-11
6.28198e-12
7.6177e-11
7.28074e-12
7.81551e-11
8.51399e-12
8.04463e-11
9.9235e-12
8.30742e-11
1.17241e-11
8.61134e-11
1.37667e-11
8.96232e-11
1.64809e-11
9.36486e-11
1.95564e-11
5.03033e-11
2.37892e-11
4.80309e-11
-1.52866e-11
1.39117e-11
5.17166e-11
-5.06909e-11
5.20051e-11
-2.00606e-11
1.87262e-11
-5.35363e-11
5.49875e-11
-2.4656e-11
2.32084e-11
-5.65534e-11
5.80531e-11
-3.06094e-11
2.91256e-11
-5.95597e-11
6.09196e-11
-3.83846e-11
3.70438e-11
-3.28684e-11
-2.5102e-11
3.27905e-11
2.48791e-11
-3.28672e-11
-3.23678e-11
3.25988e-11
3.25061e-11
-3.11688e-11
-4.15615e-11
3.03406e-11
4.23426e-11
-2.49224e-11
-5.20767e-11
2.25176e-11
5.45076e-11
-1.28164e-11
6.45335e-11
-6.04765e-11
8.7748e-12
6.27449e-11
9.32324e-15
6.27554e-11
2.81191e-14
6.27731e-11
4.73657e-14
6.27982e-11
6.73719e-14
6.28312e-11
8.84599e-14
6.28726e-11
1.1097e-13
6.2923e-11
1.35269e-13
6.29833e-11
1.61751e-13
6.30544e-11
1.90852e-13
6.31376e-11
2.23054e-13
6.3234e-11
2.58893e-13
6.33453e-11
2.98972e-13
6.34734e-11
3.43972e-13
6.36203e-11
3.94668e-13
6.37884e-11
4.51942e-13
6.39805e-11
5.16807e-13
6.41998e-11
5.90422e-13
6.445e-11
6.74142e-13
6.47355e-11
7.69503e-13
6.50609e-11
8.78361e-13
6.54322e-11
1.00276e-12
6.58555e-11
1.14532e-12
6.63388e-11
1.30875e-12
6.68902e-11
1.49693e-12
6.75208e-11
1.7133e-12
6.82411e-11
1.96404e-12
6.90669e-11
2.25309e-12
7.00114e-11
2.59112e-12
7.10979e-11
2.98149e-12
7.23433e-11
3.4441e-12
7.37816e-11
3.97835e-12
7.54354e-11
4.6238e-12
7.73541e-11
5.36741e-12
7.95707e-11
6.29015e-12
8.21543e-11
7.34855e-12
8.516e-11
8.70736e-12
8.8678e-11
1.02616e-11
9.28114e-11
1.23324e-11
9.7665e-11
1.47199e-11
5.26516e-11
1.79987e-11
5.0783e-11
-1.23549e-11
1.06235e-11
5.44121e-11
-5.41973e-11
5.60158e-11
-1.71488e-11
1.53118e-11
-5.81166e-11
6.02696e-11
-2.14198e-11
1.92671e-11
-6.26568e-11
6.51536e-11
-2.71579e-11
2.46707e-11
-6.78415e-11
7.06373e-11
-3.50179e-11
3.22339e-11
-3.90399e-11
-2.34198e-11
3.95456e-11
2.26475e-11
-4.16365e-11
-3.19564e-11
4.21351e-11
3.13416e-11
-4.31938e-11
-4.46017e-11
4.4656e-11
2.29343e-11
2.01442e-11