/*--------------------------------*- C++ -*----------------------------------*\
| =========                 |                                                 |
| \\      /  F ield         | foam-extend: Open Source CFD                    |
|  \\    /   O peration     | Version:     4.0                                |
|   \\  /    A nd           | Web:         http://www.foam-extend.org         |
|    \\/     M anipulation  |                                                 |
\*---------------------------------------------------------------------------*/
FoamFile
{
    version     2.0;
    format      ascii;
    class       volVectorField;
    location    "0.0012";
    object      U;
}
// * * * * * * * * * * * * * * * * * * * * * * * * * * * * * * * * * * * * * //

dimensions      [0 1 -1 0 0 0 0];

internalField   nonuniform List<vector> 
28770
(
(0.00210477 6.14189e-08 0)
(0.00210452 1.85194e-07 0)
(0.00210401 3.11796e-07 0)
(0.00210325 4.43152e-07 0)
(0.00210221 5.81257e-07 0)
(0.00210088 7.28202e-07 0)
(0.00209924 8.862e-07 0)
(0.00209727 1.05761e-06 0)
(0.00209494 1.245e-06 0)
(0.00209221 1.45111e-06 0)
(0.00208903 1.67896e-06 0)
(0.00208537 1.93184e-06 0)
(0.00208117 2.21338e-06 0)
(0.00207636 2.52754e-06 0)
(0.00207088 2.87868e-06 0)
(0.00206464 3.2716e-06 0)
(0.00205756 3.71157e-06 0)
(0.00204953 4.20433e-06 0)
(0.00204044 4.75621e-06 0)
(0.00203017 5.37396e-06 0)
(0.00201856 6.06519e-06 0)
(0.00200547 6.83751e-06 0)
(0.00199072 7.70004e-06 0)
(0.00197411 8.66082e-06 0)
(0.00195544 9.73087e-06 0)
(0.00193448 1.09175e-05 0)
(0.00191097 1.22344e-05 0)
(0.00188465 1.36856e-05 0)
(0.00185521 1.52894e-05 0)
(0.00182237 1.70415e-05 0)
(0.00178575 1.89684e-05 0)
(0.0017451 2.1049e-05 0)
(0.00169995 2.33236e-05 0)
(0.00165008 2.57426e-05 0)
(0.00159499 2.83671e-05 0)
(0.00153449 3.1105e-05 0)
(0.00146814 3.40434e-05 0)
(0.00139575 3.70392e-05 0)
(0.00131704 4.01999e-05 0)
(0.00123186 4.33397e-05 0)
(0.00114016 4.65639e-05 0)
(0.00104191 4.96727e-05 0)
(0.000937345 5.27381e-05 0)
(0.000826614 5.55811e-05 0)
(0.000710263 5.82261e-05 0)
(0.00058872 6.05329e-05 0)
(0.000462804 6.24901e-05 0)
(0.000333232 6.40016e-05 0)
(0.000201048 6.50455e-05 0)
(6.71856e-05 6.55725e-05 0)
(0.00210501 1.83345e-07 0)
(0.00210476 5.52835e-07 0)
(0.00210426 9.30764e-07 0)
(0.00210351 1.32289e-06 0)
(0.00210249 1.73518e-06 0)
(0.00210118 2.17386e-06 0)
(0.00209957 2.64556e-06 0)
(0.00209763 3.15733e-06 0)
(0.00209532 3.71678e-06 0)
(0.00209263 4.33219e-06 0)
(0.0020895 5.01254e-06 0)
(0.0020859 5.76769e-06 0)
(0.00208175 6.60845e-06 0)
(0.00207701 7.54668e-06 0)
(0.00207161 8.59545e-06 0)
(0.00206546 9.76909e-06 0)
(0.00205847 1.10834e-05 0)
(0.00205056 1.25555e-05 0)
(0.00204159 1.42044e-05 0)
(0.00203145 1.60504e-05 0)
(0.00201999 1.81161e-05 0)
(0.00200707 2.04246e-05 0)
(0.0019925 2.30029e-05 0)
(0.0019761 2.58754e-05 0)
(0.00195765 2.90749e-05 0)
(0.00193693 3.26235e-05 0)
(0.00191368 3.65623e-05 0)
(0.00188764 4.09035e-05 0)
(0.00185849 4.57011e-05 0)
(0.00182597 5.09444e-05 0)
(0.00178968 5.67085e-05 0)
(0.00174936 6.29386e-05 0)
(0.00170455 6.97418e-05 0)
(0.00165501 7.69927e-05 0)
(0.00160024 8.48391e-05 0)
(0.00154005 9.30608e-05 0)
(0.00147395 0.000101842 0)
(0.00140178 0.000110862 0)
(0.00132321 0.000120313 0)
(0.00123809 0.000129796 0)
(0.00114636 0.000139459 0)
(0.00104796 0.000148876 0)
(0.00094313 0.000158104 0)
(0.000831988 0.000166736 0)
(0.000715112 0.000174734 0)
(0.000592895 0.000181752 0)
(0.0004662 0.000187691 0)
(0.000335735 0.000192295 0)
(0.000202586 0.000195469 0)
(6.77017e-05 0.000197075 0)
(0.00210549 3.02568e-07 0)
(0.00210525 9.12329e-07 0)
(0.00210477 1.53603e-06 0)
(0.00210403 2.18318e-06 0)
(0.00210304 2.86362e-06 0)
(0.00210177 3.58767e-06 0)
(0.00210021 4.36624e-06 0)
(0.00209832 5.21102e-06 0)
(0.00209609 6.13459e-06 0)
(0.00209347 7.15061e-06 0)
(0.00209044 8.27397e-06 0)
(0.00208693 9.52097e-06 0)
(0.00208291 1.09095e-05 0)
(0.00207831 1.24593e-05 0)
(0.00207306 1.41919e-05 0)
(0.00206708 1.61311e-05 0)
(0.00206029 1.83032e-05 0)
(0.00205259 2.07366e-05 0)
(0.00204387 2.34631e-05 0)
(0.002034 2.65161e-05 0)
(0.00202284 2.99337e-05 0)
(0.00201026 3.37541e-05 0)
(0.00199605 3.80231e-05 0)
(0.00198006 4.2781e-05 0)
(0.00196205 4.80837e-05 0)
(0.00194181 5.39677e-05 0)
(0.00191907 6.05037e-05 0)
(0.0018936 6.7711e-05 0)
(0.00186504 7.56853e-05 0)
(0.00183315 8.44035e-05 0)
(0.0017975 9.40045e-05 0)
(0.00175786 0.000104381 0)
(0.00171371 0.000115744 0)
(0.00166486 0.00012784 0)
(0.00161073 0.000140991 0)
(0.00155114 0.000154729 0)
(0.00148557 0.000169504 0)
(0.00141384 0.000184601 0)
(0.00133558 0.00020056 0)
(0.00125061 0.000216462 0)
(0.00115885 0.00023282 0)
(0.00106017 0.000248653 0)
(0.000954832 0.000264286 0)
(0.000842898 0.000278843 0)
(0.000724966 0.000292402 0)
(0.000601406 0.000304267 0)
(0.000473127 0.000314343 0)
(0.000340848 0.000322143 0)
(0.000205729 0.000327532 0)
(6.87585e-05 0.000330256 0)
(0.0021062 4.17333e-07 0)
(0.00210597 1.25839e-06 0)
(0.00210551 2.11868e-06 0)
(0.00210481 3.01136e-06 0)
(0.00210386 3.95002e-06 0)
(0.00210265 4.94891e-06 0)
(0.00210116 6.02311e-06 0)
(0.00209936 7.18877e-06 0)
(0.00209722 8.4633e-06 0)
(0.00209473 9.8656e-06 0)
(0.00209182 1.14163e-05 0)
(0.00208848 1.31379e-05 0)
(0.00208463 1.50553e-05 0)
(0.00208023 1.71958e-05 0)
(0.0020752 1.95893e-05 0)
(0.00206948 2.2269e-05 0)
(0.00206298 2.52714e-05 0)
(0.00205561 2.8636e-05 0)
(0.00204725 3.24071e-05 0)
(0.00203778 3.66315e-05 0)
(0.00202708 4.13627e-05 0)
(0.00201499 4.66538e-05 0)
(0.00200134 5.25695e-05 0)
(0.00198595 5.91665e-05 0)
(0.00196861 6.65239e-05 0)
(0.0019491 7.46932e-05 0)
(0.00192714 8.37756e-05 0)
(0.00190251 9.37987e-05 0)
(0.00187484 0.0001049 0)
(0.00184391 0.000117048 0)
(0.00180924 0.000130442 0)
(0.00177065 0.000144935 0)
(0.00172752 0.000160825 0)
(0.00167974 0.000177773 0)
(0.00162657 0.000196208 0)
(0.00156797 0.000215531 0)
(0.0015032 0.000236302 0)
(0.00143219 0.000257636 0)
(0.0013544 0.000280149 0)
(0.00126968 0.000302742 0)
(0.00117789 0.000325924 0)
(0.00107877 0.000348542 0)
(0.000972691 0.000370832 0)
(0.000859518 0.000391728 0)
(0.000740006 0.000411176 0)
(0.000614379 0.000428277 0)
(0.000483704 0.000442798 0)
(0.000348649 0.000454076 0)
(0.000210531 0.000461866 0)
(7.03695e-05 0.000465812 0)
(0.00210713 5.25928e-07 0)
(0.00210691 1.58584e-06 0)
(0.00210648 2.67005e-06 0)
(0.00210583 3.79512e-06 0)
(0.00210494 4.97823e-06 0)
(0.0021038 6.23737e-06 0)
(0.0021024 7.59161e-06 0)
(0.00210071 9.06134e-06 0)
(0.00209871 1.06686e-05 0)
(0.00209637 1.24373e-05 0)
(0.00209364 1.43935e-05 0)
(0.0020905 1.65658e-05 0)
(0.00208688 1.89858e-05 0)
(0.00208275 2.1688e-05 0)
(0.00207802 2.47106e-05 0)
(0.00207264 2.80958e-05 0)
(0.00206652 3.189e-05 0)
(0.00205958 3.61438e-05 0)
(0.00205169 4.09139e-05 0)
(0.00204277 4.62602e-05 0)
(0.00203266 5.22514e-05 0)
(0.00202123 5.89562e-05 0)
(0.00200831 6.64583e-05 0)
(0.00199372 7.48309e-05 0)
(0.00197725 8.41783e-05 0)
(0.00195871 9.45666e-05 0)
(0.00193778 0.000106132 0)
(0.00191428 0.000118908 0)
(0.0018878 0.000133086 0)
(0.00185816 0.000148613 0)
(0.00182481 0.000165785 0)
(0.00178761 0.000184367 0)
(0.00174587 0.00020484 0)
(0.0016995 0.00022664 0)
(0.0016477 0.000250543 0)
(0.0015904 0.000275481 0)
(0.0015268 0.000302611 0)
(0.00145677 0.000330244 0)
(0.00137974 0.000359868 0)
(0.00129543 0.00038927 0)
(0.00120369 0.000419945 0)
(0.00110414 0.000449572 0)
(0.000997119 0.00047915 0)
(0.000882401 0.000506712 0)
(0.000760754 0.000532585 0)
(0.00063237 0.000555282 0)
(0.000498388 0.000574656 0)
(0.000359519 0.000589691 0)
(0.00021722 0.000600109 0)
(7.26222e-05 0.000605382 0)
(0.00210826 6.26743e-07 0)
(0.00210807 1.88985e-06 0)
(0.00210767 3.18195e-06 0)
(0.00210707 4.52286e-06 0)
(0.00210625 5.93306e-06 0)
(0.00210521 7.43405e-06 0)
(0.00210392 9.04863e-06 0)
(0.00210237 1.08012e-05 0)
(0.00210053 1.27181e-05 0)
(0.00209837 1.4828e-05 0)
(0.00209587 1.71621e-05 0)
(0.00209297 1.97548e-05 0)
(0.00208964 2.2644e-05 0)
(0.00208583 2.58711e-05 0)
(0.00208148 2.94824e-05 0)
(0.00207651 3.35283e-05 0)
(0.00207086 3.80653e-05 0)
(0.00206444 4.31545e-05 0)
(0.00205715 4.88647e-05 0)
(0.00204889 5.52687e-05 0)
(0.00203951 6.24504e-05 0)
(0.0020289 7.04938e-05 0)
(0.00201688 7.95019e-05 0)
(0.0020033 8.95647e-05 0)
(0.00198793 0.000100812 0)
(0.00197059 0.000113326 0)
(0.00195097 0.000127278 0)
(0.0019289 0.000142709 0)
(0.00190392 0.000159866 0)
(0.00187593 0.000178684 0)
(0.00184425 0.000199538 0)
(0.00180889 0.000222153 0)
(0.00176891 0.000247116 0)
(0.00172449 0.000273786 0)
(0.0016744 0.000303058 0)
(0.00161895 0.000333769 0)
(0.00155682 0.000367148 0)
(0.00148825 0.000401452 0)
(0.0014122 0.000438098 0)
(0.0013285 0.000474931 0)
(0.00123693 0.000513164 0)
(0.00113674 0.000550612 0)
(0.00102864 0.000587868 0)
(0.00091184 0.000622985 0)
(0.000787563 0.000655908 0)
(0.000655572 0.000685024 0)
(0.000517396 0.000709877 0)
(0.000373571 0.000729267 0)
(0.000225894 0.000742701 0)
(7.55327e-05 0.000749522 0)
(0.00210959 7.18275e-07 0)
(0.00210942 2.16587e-06 0)
(0.00210906 3.64677e-06 0)
(0.00210852 5.18372e-06 0)
(0.00210779 6.80026e-06 0)
(0.00210685 8.52112e-06 0)
(0.0021057 1.03725e-05 0)
(0.00210431 1.23825e-05 0)
(0.00210265 1.45815e-05 0)
(0.00210072 1.70024e-05 0)
(0.00209847 1.96814e-05 0)
(0.00209587 2.26581e-05 0)
(0.00209287 2.59762e-05 0)
(0.00208944 2.96841e-05 0)
(0.00208552 3.3835e-05 0)
(0.00208105 3.8488e-05 0)
(0.00207595 4.37084e-05 0)
(0.00207015 4.95679e-05 0)
(0.00206356 5.61469e-05 0)
(0.00205607 6.35309e-05 0)
(0.00204757 7.1819e-05 0)
(0.00203793 8.11101e-05 0)
(0.00202698 9.15273e-05 0)
(0.00201459 0.000103177 0)
(0.00200052 0.000116218 0)
(0.00198462 0.000130746 0)
(0.00196655 0.000146978 0)
(0.00194619 0.000164954 0)
(0.00192303 0.000184999 0)
(0.00189701 0.000207007 0)
(0.00186737 0.000231512 0)
(0.0018342 0.000258076 0)
(0.00179643 0.000287632 0)
(0.00175428 0.0003191 0)
(0.00170643 0.000354105 0)
(0.00165315 0.000390496 0)
(0.00159307 0.000430903 0)
(0.00152624 0.000471738 0)
(0.00145169 0.000516669 0)
(0.00136893 0.000560812 0)
(0.0012778 0.000608113 0)
(0.00117729 0.000653525 0)
(0.00106799 0.000699728 0)
(0.000949025 0.00074284 0)
(0.0008215 0.000783814 0)
(0.000685215 0.000819937 0)
(0.00054171 0.000851017 0)
(0.00039166 0.000875255 0)
(0.000237054 0.000892123 0)
(7.93009e-05 0.000900683 0)
(0.00211109 7.99134e-07 0)
(0.00211094 2.40972e-06 0)
(0.00211063 4.05745e-06 0)
(0.00211016 5.76769e-06 0)
(0.00210952 7.56672e-06 0)
(0.00210871 9.48212e-06 0)
(0.0021077 1.15432e-05 0)
(0.00210649 1.37813e-05 0)
(0.00210505 1.62305e-05 0)
(0.00210337 1.89276e-05 0)
(0.0021014 2.19131e-05 0)
(0.00209914 2.52316e-05 0)
(0.00209652 2.89323e-05 0)
(0.00209353 3.30694e-05 0)
(0.0020901 3.77031e-05 0)
(0.00208618 4.29002e-05 0)
(0.00208171 4.87347e-05 0)
(0.00207662 5.52879e-05 0)
(0.00207083 6.26514e-05 0)
(0.00206423 7.09231e-05 0)
(0.00205673 8.02165e-05 0)
(0.0020482 9.06457e-05 0)
(0.00203849 0.000102353 0)
(0.00202748 0.000115463 0)
(0.00201492 0.000130161 0)
(0.00200071 0.00014656 0)
(0.00198446 0.000164916 0)
(0.00196613 0.000185286 0)
(0.0019451 0.00020805 0)
(0.00192147 0.000233108 0)
(0.00189425 0.000261071 0)
(0.00186384 0.000291497 0)
(0.00182866 0.000325404 0)
(0.00178957 0.000361726 0)
(0.0017443 0.000402106 0)
(0.00169415 0.00044453 0)
(0.00163637 0.000491401 0)
(0.00157223 0.000539596 0)
(0.00149942 0.000592048 0)
(0.00141804 0.00064487 0)
(0.00132771 0.000700658 0)
(0.00122645 0.000755696 0)
(0.0011161 0.000811177 0)
(0.000994174 0.000863998 0)
(0.000863055 0.000914018 0)
(0.000721376 0.000958699 0)
(0.000571562 0.00099713 0)
(0.000413821 0.00102735 0)
(0.000250792 0.00104838 0)
(8.39147e-05 0.00105911 0)
(0.00211273 8.68097e-07 0)
(0.00211261 2.61771e-06 0)
(0.00211235 4.40777e-06 0)
(0.00211196 6.26592e-06 0)
(0.00211143 8.2208e-06 0)
(0.00211075 1.03025e-05 0)
(0.00210991 1.25429e-05 0)
(0.00210889 1.49764e-05 0)
(0.00210769 1.76401e-05 0)
(0.00210628 2.05743e-05 0)
(0.00210464 2.38235e-05 0)
(0.00210274 2.74365e-05 0)
(0.00210055 3.14672e-05 0)
(0.00209803 3.59755e-05 0)
(0.00209515 4.10279e-05 0)
(0.00209185 4.66978e-05 0)
(0.00208808 5.30676e-05 0)
(0.00208378 6.02276e-05 0)
(0.00207887 6.82799e-05 0)
(0.00207327 7.7334e-05 0)
(0.00206688 8.75176e-05 0)
(0.0020596 9.89595e-05 0)
(0.00205128 0.000111822 0)
(0.00204182 0.000126246 0)
(0.00203097 0.000142447 0)
(0.00201865 0.000160554 0)
(0.00200447 0.000180874 0)
(0.00198843 0.000203463 0)
(0.00196985 0.000228804 0)
(0.00194892 0.000256729 0)
(0.00192454 0.000288093 0)
(0.00189719 0.000322184 0)
(0.00186519 0.000360616 0)
(0.00182939 0.000401521 0)
(0.00178751 0.000447964 0)
(0.00174059 0.000495931 0)
(0.00168615 0.000550894 0)
(0.00162479 0.000605558 0)
(0.00155477 0.000668397 0)
(0.00147528 0.000728739 0)
(0.00138631 0.000796502 0)
(0.0012855 0.00086072 0)
(0.00117403 0.000927854 0)
(0.00104972 0.000990753 0)
(0.000914226 0.00105149 0)
(0.000766594 0.00110559 0)
(0.000608932 0.00115259 0)
(0.000441844 0.0011896 0)
(0.000268146 0.00121548 0)
(8.98002e-05 0.00122869 0)
(0.0021145 9.24106e-07 0)
(0.0021144 2.78664e-06 0)
(0.0021142 4.69236e-06 0)
(0.00211389 6.67076e-06 0)
(0.00211347 8.75246e-06 0)
(0.00211294 1.09696e-05 0)
(0.00211228 1.33563e-05 0)
(0.00211148 1.59494e-05 0)
(0.00211053 1.87885e-05 0)
(0.00210942 2.19171e-05 0)
(0.00210812 2.53828e-05 0)
(0.00210662 2.92381e-05 0)
(0.00210489 3.35413e-05 0)
(0.00210289 3.83568e-05 0)
(0.0021006 4.37566e-05 0)
(0.00209797 4.98205e-05 0)
(0.00209496 5.6638e-05 0)
(0.00209152 6.43074e-05 0)
(0.00208758 7.29407e-05 0)
(0.00208307 8.26582e-05 0)
(0.0020779 9.36005e-05 0)
(0.002072 0.000105911 0)
(0.00206521 0.00011977 0)
(0.00205747 0.000135337 0)
(0.00204852 0.000152852 0)
(0.00203834 0.00017247 0)
(0.00202648 0.00019453 0)
(0.00201306 0.000219121 0)
(0.00199726 0.000246771 0)
(0.00197953 0.00027736 0)
(0.00195835 0.00031178 0)
(0.00193485 0.000349423 0)
(0.00190635 0.000391859 0)
(0.0018751 0.000437511 0)
(0.00183675 0.000489093 0)
(0.00179494 0.0005434 0)
(0.00174371 0.000604743 0)
(0.00168729 0.000667785 0)
(0.00162003 0.000738257 0)
(0.00154348 0.000809284 0)
(0.00145694 0.000886125 0)
(0.00135506 0.000962937 0)
(0.00124342 0.00104161 0)
(0.00111523 0.00111778 0)
(0.000975496 0.00119081 0)
(0.000820375 0.00125711 0)
(0.000653823 0.00131473 0)
(0.000475402 0.00136063 0)
(0.000289072 0.00139276 0)
(9.68477e-05 0.00140926 0)
(0.00211637 9.6628e-07 0)
(0.0021163 2.91386e-06 0)
(0.00211615 4.90672e-06 0)
(0.00211593 6.97582e-06 0)
(0.00211564 9.15328e-06 0)
(0.00211525 1.14728e-05 0)
(0.00211478 1.39704e-05 0)
(0.00211421 1.66846e-05 0)
(0.00211354 1.96573e-05 0)
(0.00211274 2.29343e-05 0)
(0.00211181 2.65657e-05 0)
(0.00211073 3.06073e-05 0)
(0.00210948 3.51205e-05 0)
(0.00210803 4.0174e-05 0)
(0.00210637 4.58442e-05 0)
(0.00210446 5.22162e-05 0)
(0.00210226 5.93856e-05 0)
(0.00209974 6.74583e-05 0)
(0.00209683 7.65544e-05 0)
(0.0020935 8.68043e-05 0)
(0.00208965 9.83607e-05 0)
(0.00208522 0.00011138 0)
(0.00208009 0.000126061 0)
(0.00207421 0.000142579 0)
(0.00206733 0.000161204 0)
(0.00205946 0.000182108 0)
(0.00205015 0.000205684 0)
(0.00203958 0.00023202 0)
(0.00202688 0.000261763 0)
(0.00201258 0.000294717 0)
(0.0019951 0.000332082 0)
(0.0019756 0.000372888 0)
(0.00195144 0.000419572 0)
(0.00192459 0.000469318 0)
(0.00189119 0.000527215 0)
(0.00185383 0.000586499 0)
(0.00180795 0.000657433 0)
(0.00175552 0.000726026 0)
(0.00169332 0.000810652 0)
(0.00162006 0.000887936 0)
(0.00153677 0.000982474 0)
(0.00143775 0.00106978 0)
(0.00132564 0.00116396 0)
(0.00119582 0.00125342 0)
(0.00105065 0.00134119 0)
(0.000887932 0.00142103 0)
(0.000710295 0.00149113 0)
(0.000518248 0.00154723 0)
(0.000315768 0.00158672 0)
(0.000105954 0.00160706 0)
(0.0021183 9.93949e-07 0)
(0.00211826 2.99734e-06 0)
(0.00211818 5.04746e-06 0)
(0.00211805 7.17624e-06 0)
(0.00211788 9.41686e-06 0)
(0.00211766 1.18042e-05 0)
(0.00211738 1.43753e-05 0)
(0.00211705 1.71703e-05 0)
(0.00211665 2.02324e-05 0)
(0.00211619 2.36091e-05 0)
(0.00211564 2.73527e-05 0)
(0.002115 3.1521e-05 0)
(0.00211425 3.61782e-05 0)
(0.00211339 4.13959e-05 0)
(0.00211239 4.72542e-05 0)
(0.00211123 5.38423e-05 0)
(0.00210989 6.12611e-05 0)
(0.00210833 6.96221e-05 0)
(0.00210652 7.9053e-05 0)
(0.00210442 8.96924e-05 0)
(0.00210196 0.000101703 0)
(0.00209912 0.000115255 0)
(0.00209576 0.00013056 0)
(0.00209188 0.000147815 0)
(0.00208722 0.000167307 0)
(0.00208189 0.00018924 0)
(0.00207535 0.000214029 0)
(0.00206797 0.000241821 0)
(0.00205865 0.000273272 0)
(0.00204838 0.00030831 0)
(0.00203489 0.000348074 0)
(0.00202052 0.000391903 0)
(0.00200077 0.00044191 0)
(0.0019805 0.000496103 0)
(0.00195149 0.000558459 0)
(0.00192244 0.000624362 0)
(0.00188033 0.000700934 0)
(0.00183731 0.000779353 0)
(0.00177857 0.000870536 0)
(0.00171172 0.000961782 0)
(0.00163499 0.00106394 0)
(0.00153276 0.00116859 0)
(0.00142324 0.00127763 0)
(0.00128878 0.00138595 0)
(0.00113961 0.00149143 0)
(0.000967187 0.00158943 0)
(0.000777397 0.00167599 0)
(0.000569001 0.00174621 0)
(0.00034765 0.00179588 0)
(0.000116759 0.00182163 0)
(0.00212028 1.00665e-06 0)
(0.00212026 3.03569e-06 0)
(0.00212024 5.11219e-06 0)
(0.00212021 7.26864e-06 0)
(0.00212017 9.53872e-06 0)
(0.00212011 1.19579e-05 0)
(0.00212004 1.45641e-05 0)
(0.00211995 1.73979e-05 0)
(0.00211984 2.05036e-05 0)
(0.00211971 2.39296e-05 0)
(0.00211956 2.77296e-05 0)
(0.00211937 3.19625e-05 0)
(0.00211915 3.66945e-05 0)
(0.00211888 4.19992e-05 0)
(0.00211856 4.79592e-05 0)
(0.00211818 5.46667e-05 0)
(0.00211771 6.22263e-05 0)
(0.00211716 7.07542e-05 0)
(0.00211649 8.03835e-05 0)
(0.00211568 9.12601e-05 0)
(0.00211468 0.000103555 0)
(0.00211348 0.000117449 0)
(0.00211197 0.000133167 0)
(0.00211019 0.000150922 0)
(0.00210789 0.000171022 0)
(0.00210521 0.000193696 0)
(0.00210164 0.000219395 0)
(0.00209759 0.000248291 0)
(0.00209198 0.000281126 0)
(0.00208582 0.000317805 0)
(0.00207695 0.000359727 0)
(0.00206748 0.000405948 0)
(0.00205347 0.000459452 0)
(0.00203872 0.000516939 0)
(0.00201678 0.0005853 0)
(0.00199334 0.000655141 0)
(0.00195971 0.000742751 0)
(0.00192159 0.000824284 0)
(0.00187195 0.000936268 0)
(0.00180944 0.00102731 0)
(0.00173927 0.00116034 0)
(0.00164699 0.0012772 0)
(0.00153848 0.00140497 0)
(0.00140517 0.00153188 0)
(0.00124989 0.00165772 0)
(0.00106865 0.00177665 0)
(0.000863813 0.00188227 0)
(0.000635647 0.0019689 0)
(0.000389616 0.00203046 0)
(0.000131163 0.00206259 0)
(0.00212226 1.00414e-06 0)
(0.00212228 3.02818e-06 0)
(0.00212232 5.09972e-06 0)
(0.00212238 7.25124e-06 0)
(0.00212247 9.51653e-06 0)
(0.00212258 1.19311e-05 0)
(0.00212271 1.45329e-05 0)
(0.00212287 1.73628e-05 0)
(0.00212305 2.04653e-05 0)
(0.00212326 2.3889e-05 0)
(0.0021235 2.7688e-05 0)
(0.00212378 3.1922e-05 0)
(0.00212408 3.66577e-05 0)
(0.00212442 4.19697e-05 0)
(0.00212479 4.79419e-05 0)
(0.0021252 5.46684e-05 0)
(0.00212564 6.22558e-05 0)
(0.00212611 7.08234e-05 0)
(0.0021266 8.05077e-05 0)
(0.00212711 9.14602e-05 0)
(0.00212761 0.000103857 0)
(0.00212812 0.00011789 0)
(0.00212854 0.000133789 0)
(0.00212895 0.000151789 0)
(0.00212911 0.000172205 0)
(0.00212926 0.000195304 0)
(0.00212881 0.000221537 0)
(0.00212842 0.000251163 0)
(0.00212671 0.000284885 0)
(0.00212534 0.000322814 0)
(0.00212119 0.000366168 0)
(0.00211817 0.000414536 0)
(0.00210945 0.000470266 0)
(0.00210373 0.000531479 0)
(0.00208681 0.000603074 0)
(0.00207661 0.000679476 0)
(0.00204595 0.000771182 0)
(0.0020268 0.000864357 0)
(0.00197737 0.000979839 0)
(0.00193113 0.00109069 0)
(0.00187968 0.00122175 0)
(0.0017723 0.00136331 0)
(0.00167261 0.00151283 0)
(0.00153626 0.00166663 0)
(0.00137928 0.00181939 0)
(0.00118706 0.00196582 0)
(0.000965645 0.00209867 0)
(0.00071411 0.00220936 0)
(0.000439385 0.00228894 0)
(0.000148217 0.00233072 0)
(0.00212422 9.86421e-07 0)
(0.00212428 2.97478e-06 0)
(0.00212438 5.00994e-06 0)
(0.00212454 7.12394e-06 0)
(0.00212475 9.35006e-06 0)
(0.00212502 1.17234e-05 0)
(0.00212536 1.42814e-05 0)
(0.00212576 1.70644e-05 0)
(0.00212623 2.01164e-05 0)
(0.00212678 2.34859e-05 0)
(0.00212742 2.72262e-05 0)
(0.00212815 3.13967e-05 0)
(0.00212898 3.60639e-05 0)
(0.00212993 4.13023e-05 0)
(0.00213099 4.71957e-05 0)
(0.00213219 5.38385e-05 0)
(0.00213353 6.13377e-05 0)
(0.00213503 6.98142e-05 0)
(0.00213669 7.94056e-05 0)
(0.00213854 9.02666e-05 0)
(0.00214055 0.000102577 0)
(0.00214279 0.000116533 0)
(0.00214517 0.000132372 0)
(0.00214781 0.000150343 0)
(0.0021505 0.000170765 0)
(0.00215352 0.00019394 0)
(0.00215633 0.000220319 0)
(0.00215962 0.000250229 0)
(0.00216214 0.000284365 0)
(0.00216541 0.000322963 0)
(0.00216676 0.000367234 0)
(0.00216941 0.000416938 0)
(0.00216798 0.000474547 0)
(0.00216876 0.000538114 0)
(0.00216169 0.00061365 0)
(0.00215794 0.000693363 0)
(0.00214074 0.000794652 0)
(0.0021259 0.000888616 0)
(0.00209357 0.00103468 0)
(0.00204631 0.00111992 0)
(0.0020062 0.0013203 0)
(0.001932 0.00148074 0)
(0.00183547 0.00163922 0)
(0.00170533 0.00182082 0)
(0.00154284 0.00200213 0)
(0.00134211 0.00218357 0)
(0.00110227 0.00234731 0)
(0.000821952 0.00248567 0)
(0.00050845 0.00258588 0)
(0.000172068 0.00263907 0)
(0.00212614 9.53705e-07 0)
(0.00212622 2.87616e-06 0)
(0.00212638 4.84401e-06 0)
(0.00212663 6.88831e-06 0)
(0.00212697 9.04138e-06 0)
(0.00212741 1.13373e-05 0)
(0.00212794 1.38124e-05 0)
(0.00212858 1.6506e-05 0)
(0.00212934 1.9461e-05 0)
(0.00213022 2.27244e-05 0)
(0.00213125 2.63486e-05 0)
(0.00213243 3.03915e-05 0)
(0.00213378 3.49183e-05 0)
(0.00213532 4.0002e-05 0)
(0.00213707 4.57252e-05 0)
(0.00213905 5.2181e-05 0)
(0.00214128 5.94752e-05 0)
(0.0021438 6.77278e-05 0)
(0.00214662 7.70756e-05 0)
(0.0021498 8.76741e-05 0)
(0.00215333 9.9702e-05 0)
(0.00215729 0.000113361 0)
(0.00216164 0.000128888 0)
(0.00216654 0.000146543 0)
(0.00217179 0.000166643 0)
(0.00217778 0.000189524 0)
(0.00218392 0.00021562 0)
(0.00219113 0.000245346 0)
(0.00219793 0.000279332 0)
(0.00220649 0.000318033 0)
(0.00221321 0.00036245 0)
(0.00222325 0.000412902 0)
(0.0022281 0.000471221 0)
(0.00223993 0.00053691 0)
(0.00223883 0.000614083 0)
(0.00225384 0.000698907 0)
(0.00223714 0.000802932 0)
(0.00226183 0.000909168 0)
(0.00220386 0.00105736 0)
(0.00226923 0.00117557 0)
(0.00220972 0.00132163 0)
(0.00202872 0.00132748 0)
(0.00197601 0.00152063 0)
(0.00187892 0.00173456 0)
(0.00174048 0.00195656 0)
(0.00155123 0.00218367 0)
(0.00130727 0.00240653 0)
(0.00101215 0.00260984 0)
(0.000672208 0.00277418 0)
(0.000298339 0.00288423 0)
(0.00212797 9.06444e-07 0)
(0.00212808 2.73367e-06 0)
(0.00212831 4.60417e-06 0)
(0.00212865 6.54754e-06 0)
(0.00212911 8.59463e-06 0)
(0.00212969 1.07779e-05 0)
(0.00213042 1.31322e-05 0)
(0.00213129 1.5695e-05 0)
(0.00213232 1.85073e-05 0)
(0.00213353 2.16143e-05 0)
(0.00213493 2.50661e-05 0)
(0.00213654 2.89185e-05 0)
(0.00213839 3.32341e-05 0)
(0.00214051 3.80834e-05 0)
(0.00214292 4.35461e-05 0)
(0.00214566 4.97127e-05 0)
(0.00214876 5.66856e-05 0)
(0.00215227 6.4582e-05 0)
(0.00215622 7.35354e-05 0)
(0.00216069 8.3699e-05 0)
(0.00216571 9.52475e-05 0)
(0.00217137 0.000108383 0)
(0.00217766 0.000123337 0)
(0.00218478 0.000140379 0)
(0.00219258 0.000159813 0)
(0.00220147 0.000182007 0)
(0.00221099 0.000207359 0)
(0.002222 0.00023638 0)
(0.00223331 0.000269584 0)
(0.0022468 0.000307711 0)
(0.00225966 0.000351369 0)
(0.00227592 0.000401737 0)
(0.0022894 0.000459317 0)
(0.00230864 0.000526335 0)
(0.00232031 0.000602234 0)
(0.00234286 0.000692458 0)
(0.00234662 0.000791147 0)
(0.00237503 0.000916015 0)
(0.00235442 0.00103624 0)
(0.00240599 0.00122413 0)
(0.00244913 0.00134462 0)
(0.0022164 0.00143915 0)
(0.00218026 0.00166065 0)
(0.00210065 0.00190586 0)
(0.00197237 0.00216744 0)
(0.00178653 0.00243464 0)
(0.0015207 0.00271139 0)
(0.001191 0.00296592 0)
(0.000798306 0.00317077 0)
(0.000355388 0.00330203 0)
(0.0021297 8.45327e-07 0)
(0.00212984 2.54939e-06 0)
(0.00213012 4.29391e-06 0)
(0.00213054 6.1066e-06 0)
(0.00213112 8.01628e-06 0)
(0.00213185 1.00534e-05 0)
(0.00213275 1.22505e-05 0)
(0.00213384 1.46429e-05 0)
(0.00213513 1.72689e-05 0)
(0.00213665 2.01711e-05 0)
(0.0021384 2.33965e-05 0)
(0.00214043 2.69978e-05 0)
(0.00214275 3.1034e-05 0)
(0.00214542 3.55719e-05 0)
(0.00214845 4.06869e-05 0)
(0.00215191 4.64649e-05 0)
(0.00215584 5.30033e-05 0)
(0.0021603 6.04144e-05 0)
(0.00216534 6.88254e-05 0)
(0.00217106 7.83844e-05 0)
(0.0021775 8.9259e-05 0)
(0.0021848 0.000101648 0)
(0.00219297 0.000115771 0)
(0.00220226 0.0001319 0)
(0.00221255 0.000150327 0)
(0.00222433 0.00017143 0)
(0.00223716 0.000195587 0)
(0.00225206 0.000223353 0)
(0.00226778 0.000255195 0)
(0.00228657 0.000291967 0)
(0.00230528 0.000334195 0)
(0.00232894 0.000383275 0)
(0.0023501 0.000439637 0)
(0.00237987 0.000505761 0)
(0.00240149 0.000581393 0)
(0.00243882 0.000671583 0)
(0.00245603 0.000772972 0)
(0.00250182 0.000898554 0)
(0.00250555 0.00103058 0)
(0.00255408 0.00121452 0)
(0.00267545 0.00134236 0)
(0.00243115 0.00151266 0)
(0.00241976 0.00176176 0)
(0.00236484 0.00204535 0)
(0.00225754 0.00235665 0)
(0.00209901 0.00265935 0)
(0.00179433 0.00302333 0)
(0.00142838 0.00335927 0)
(0.000970505 0.00363142 0)
(0.000433789 0.003804 0)
(0.0021313 7.71242e-07 0)
(0.00213146 2.32599e-06 0)
(0.00213179 3.91774e-06 0)
(0.00213229 5.57184e-06 0)
(0.00213297 7.31469e-06 0)
(0.00213384 9.17415e-06 0)
(0.00213491 1.11801e-05 0)
(0.0021362 1.33647e-05 0)
(0.00213773 1.57634e-05 0)
(0.00213953 1.84152e-05 0)
(0.00214161 2.13633e-05 0)
(0.00214402 2.46563e-05 0)
(0.00214679 2.83486e-05 0)
(0.00214996 3.25019e-05 0)
(0.00215358 3.7186e-05 0)
(0.00215772 4.24806e-05 0)
(0.00216242 4.84763e-05 0)
(0.00216776 5.52778e-05 0)
(0.00217382 6.30038e-05 0)
(0.0021807 7.17937e-05 0)
(0.00218849 8.18042e-05 0)
(0.00219733 9.32248e-05 0)
(0.00220728 0.000106262 0)
(0.00221861 0.000121181 0)
(0.00223129 0.000138247 0)
(0.00224579 0.000157854 0)
(0.00226183 0.000180323 0)
(0.00228037 0.000206275 0)
(0.0023005 0.00023604 0)
(0.00232415 0.000270705 0)
(0.00234906 0.000310392 0)
(0.00237916 0.000357242 0)
(0.00240934 0.000410477 0)
(0.00244745 0.000474804 0)
(0.00248268 0.000546472 0)
(0.00253044 0.000636726 0)
(0.00256886 0.00073298 0)
(0.00262727 0.000863336 0)
(0.0026638 0.000990947 0)
(0.00272892 0.00118547 0)
(0.00288887 0.00131168 0)
(0.00266892 0.00154181 0)
(0.00269373 0.00181817 0)
(0.00267432 0.00214678 0)
(0.00258976 0.00254212 0)
(0.00247458 0.00304279 0)
(0.00217989 0.00350366 0)
(0.0017442 0.00394708 0)
(0.00115858 0.00431982 0)
(0.000446756 0.00454818 0)
(0.00213274 6.8531e-07 0)
(0.00213292 2.06685e-06 0)
(0.0021333 3.48135e-06 0)
(0.00213387 4.95138e-06 0)
(0.00213464 6.50046e-06 0)
(0.00213563 8.15344e-06 0)
(0.00213686 9.93693e-06 0)
(0.00213833 1.18797e-05 0)
(0.00214008 1.40135e-05 0)
(0.00214213 1.63729e-05 0)
(0.00214451 1.89969e-05 0)
(0.00214727 2.19289e-05 0)
(0.00215044 2.52178e-05 0)
(0.00215407 2.89189e-05 0)
(0.00215823 3.30952e-05 0)
(0.00216297 3.78185e-05 0)
(0.00216837 4.31707e-05 0)
(0.00217452 4.92467e-05 0)
(0.00218151 5.61543e-05 0)
(0.00218947 6.40208e-05 0)
(0.00219848 7.29888e-05 0)
(0.00220874 8.32337e-05 0)
(0.00222034 9.49431e-05 0)
(0.00223358 0.000108367 0)
(0.00224846 0.000123748 0)
(0.00226553 0.00014146 0)
(0.00228458 0.000161799 0)
(0.00230662 0.000185367 0)
(0.00233086 0.000212471 0)
(0.00235937 0.00024416 0)
(0.00239001 0.000280604 0)
(0.00242694 0.00032378 0)
(0.00246522 0.000373275 0)
(0.00251304 0.0004331 0)
(0.00256004 0.000501025 0)
(0.00262144 0.000585717 0)
(0.00267792 0.000679806 0)
(0.00275441 0.000802995 0)
(0.00282098 0.000934145 0)
(0.00290795 0.00111897 0)
(0.00310449 0.00124377 0)
(0.00292818 0.00152023 0)
(0.00300202 0.00181711 0)
(0.00303986 0.0021783 0)
(0.00302231 0.00261006 0)
(0.00299418 0.00323779 0)
(0.0027352 0.00384316 0)
(0.00227245 0.00447347 0)
(0.00156831 0.00503883 0)
(0.000638954 0.00540319 0)
(0.00213399 5.88808e-07 0)
(0.0021342 1.77583e-06 0)
(0.00213462 2.99121e-06 0)
(0.00213525 4.25441e-06 0)
(0.00213611 5.58567e-06 0)
(0.0021372 7.00642e-06 0)
(0.00213856 8.53957e-06 0)
(0.00214019 1.021e-05 0)
(0.00214213 1.2045e-05 0)
(0.00214441 1.40746e-05 0)
(0.00214705 1.63323e-05 0)
(0.00215011 1.88559e-05 0)
(0.00215363 2.16876e-05 0)
(0.00215767 2.48755e-05 0)
(0.0021623 2.84743e-05 0)
(0.00216758 3.25466e-05 0)
(0.00217361 3.71636e-05 0)
(0.00218047 4.24085e-05 0)
(0.00218829 4.83753e-05 0)
(0.00219719 5.51765e-05 0)
(0.0022073 6.29366e-05 0)
(0.00221882 7.18119e-05 0)
(0.00223189 8.19666e-05 0)
(0.00224682 9.36272e-05 0)
(0.00226369 0.000107003 0)
(0.00228305 0.000122444 0)
(0.00230483 0.000140193 0)
(0.00232999 0.000160839 0)
(0.00235807 0.000184593 0)
(0.00239086 0.000212547 0)
(0.00242702 0.000244648 0)
(0.0024699 0.000283112 0)
(0.00251638 0.000326984 0)
(0.00257253 0.000381016 0)
(0.00263212 0.000441762 0)
(0.0027055 0.000519624 0)
(0.00278162 0.000605142 0)
(0.00287631 0.000720562 0)
(0.00297319 0.000844049 0)
(0.0030907 0.00101945 0)
(0.00331286 0.00113286 0)
(0.00320086 0.00144155 0)
(0.00333677 0.00174984 0)
(0.00345239 0.00213827 0)
(0.00352917 0.00262626 0)
(0.00362296 0.0033516 0)
(0.00346489 0.00414339 0)
(0.0030274 0.00504444 0)
(0.00219075 0.00594146 0)
(0.000931143 0.00657717 0)
(0.00213505 4.83231e-07 0)
(0.00213527 1.45742e-06 0)
(0.00213572 2.45493e-06 0)
(0.00213641 3.49175e-06 0)
(0.00213734 4.58453e-06 0)
(0.00213853 5.75089e-06 0)
(0.00213999 7.0097e-06 0)
(0.00214176 8.38145e-06 0)
(0.00214386 9.88857e-06 0)
(0.00214633 1.15559e-05 0)
(0.00214919 1.34111e-05 0)
(0.00215251 1.54853e-05 0)
(0.00215633 1.78134e-05 0)
(0.00216072 2.04353e-05 0)
(0.00216574 2.33962e-05 0)
(0.00217148 2.6748e-05 0)
(0.00217803 3.05502e-05 0)
(0.0021855 3.48717e-05 0)
(0.00219402 3.97912e-05 0)
(0.00220372 4.54026e-05 0)
(0.00221477 5.18102e-05 0)
(0.00222738 5.91459e-05 0)
(0.0022417 6.75471e-05 0)
(0.00225809 7.72071e-05 0)
(0.00227668 8.83017e-05 0)
(0.00229803 0.000101132 0)
(0.00232217 0.000115905 0)
(0.00235009 0.000133129 0)
(0.00238149 0.000152995 0)
(0.00241818 0.000176428 0)
(0.00245911 0.000203463 0)
(0.00250756 0.000235896 0)
(0.00256108 0.000273226 0)
(0.00262542 0.0003191 0)
(0.00269576 0.00037159 0)
(0.00278142 0.000438229 0)
(0.00287468 0.000513811 0)
(0.00298834 0.000613679 0)