/*--------------------------------*- C++ -*----------------------------------*\
| =========                 |                                                 |
| \\      /  F ield         | foam-extend: Open Source CFD                    |
|  \\    /   O peration     | Version:     4.0                                |
|   \\  /    A nd           | Web:         http://www.foam-extend.org         |
|    \\/     M anipulation  |                                                 |
\*---------------------------------------------------------------------------*/
FoamFile
{
    version     2.0;
    format      ascii;
    class       volScalarField;
    location    "0.0003";
    object      k;
}
// * * * * * * * * * * * * * * * * * * * * * * * * * * * * * * * * * * * * * //

dimensions      [0 2 -2 0 0 0 0];

internalField   nonuniform List<scalar> 
28770
(
1.10703e-05
2.63213e-05
3.87744e-05
5.03601e-05
5.96488e-05
6.76921e-05
7.43013e-05
7.962e-05
8.38016e-05
8.70094e-05
8.94109e-05
9.11632e-05
9.24084e-05
9.32699e-05
9.38497e-05
9.42289e-05
9.44696e-05
9.46174e-05
9.47049e-05
9.47541e-05
9.47792e-05
9.47885e-05
9.47859e-05
9.47717e-05
9.47414e-05
9.46885e-05
9.45997e-05
9.44547e-05
9.42232e-05
9.3862e-05
9.33113e-05
9.24916e-05
9.13022e-05
8.96206e-05
8.7307e-05
8.42131e-05
8.01971e-05
7.51453e-05
6.89986e-05
6.17815e-05
5.36268e-05
4.47914e-05
3.56539e-05
2.66903e-05
1.84262e-05
1.13681e-05
5.92464e-06
2.32219e-06
5.14166e-07
3.92783e-08
0.000334516
0.000785824
0.00115258
0.00149425
0.0017708
0.00200802
0.0022035
0.00236088
0.0024846
0.0025795
0.00265055
0.0027024
0.00273926
0.00276477
0.00278194
0.00279318
0.00280032
0.00280471
0.00280731
0.00280877
0.00280952
0.0028098
0.00280972
0.0028093
0.00280841
0.00280683
0.00280419
0.00279988
0.002793
0.00278226
0.00276589
0.00274152
0.00270616
0.00265616
0.00258738
0.0024954
0.00237602
0.00222586
0.00204318
0.00182873
0.00158648
0.0013241
0.00105286
0.000786938
0.000541956
0.000332965
0.000172081
6.60167e-05
1.34374e-05
5.68304e-07
0.00219416
0.00540446
0.00790593
0.0101949
0.0120846
0.0136841
0.0150028
0.0160652
0.0169009
0.0175419
0.0180218
0.0183722
0.0186213
0.0187939
0.0189102
0.0189864
0.0190349
0.0190648
0.0190826
0.0190926
0.0190978
0.0190997
0.0190992
0.0190963
0.0190902
0.0190795
0.0190614
0.0190319
0.0189847
0.0189111
0.0187988
0.0186316
0.018389
0.0180461
0.0175742
0.0169432
0.0161243
0.0150945
0.0138421
0.0123724
0.0107132
0.0089176
0.00706368
0.00524927
0.00358209
0.00216591
0.00108497
0.000388763
6.86948e-05
2.56047e-06
0.00709732
0.0184971
0.0272856
0.0350521
0.0415271
0.046963
0.0514341
0.0550337
0.0578651
0.0600379
0.0616644
0.062852
0.0636972
0.064283
0.0646783
0.0649377
0.0651031
0.0652053
0.0652662
0.0653007
0.0653186
0.0653253
0.0653237
0.0653138
0.0652927
0.0652554
0.0651928
0.0650903
0.0649267
0.0646712
0.0642815
0.0637014
0.0628593
0.0616689
0.0600312
0.0578416
0.0550005
0.0514285
0.0470859
0.0419927
0.0362473
0.0300373
0.0236375
0.0173932
0.0116862
0.00688849
0.0033067
0.00110779
0.000181177
6.49045e-06
0.0160866
0.0437777
0.065546
0.0842256
0.0997796
0.112746
0.123372
0.131908
0.138616
0.143763
0.147616
0.15043
0.152434
0.153823
0.154762
0.155379
0.155773
0.156017
0.156163
0.156246
0.156289
0.156305
0.156301
0.156277
0.156226
0.156135
0.155982
0.155732
0.155332
0.154709
0.153757
0.15234
0.150284
0.147378
0.143382
0.13804
0.131113
0.122408
0.111832
0.0994403
0.0854803
0.0704216
0.0549533
0.0399429
0.0263547
0.0151265
0.00699474
0.00223944
0.000352643
1.24148e-05
0.0296496
0.0829501
0.126135
0.162639
0.192878
0.217901
0.238307
0.254644
0.267458
0.277282
0.284633
0.290001
0.293824
0.296478
0.298272
0.299452
0.300207
0.300676
0.300956
0.301116
0.301199
0.301231
0.301223
0.301175
0.301074
0.300895
0.300593
0.300099
0.29931
0.298077
0.296196
0.293397
0.289335
0.283596
0.275708
0.265173
0.251518
0.234377
0.213574
0.189237
0.161879
0.132467
0.102411
0.0734861
0.0476443
0.0267255
0.0120202
0.00374136
0.00057723
2.01272e-05
0.047713
0.135588
0.208904
0.270698
0.321695
0.363607
0.397607
0.424714
0.445909
0.462131
0.47426
0.483113
0.489417
0.493795
0.496756
0.498706
0.499955
0.500731
0.501197
0.501462
0.501601
0.501653
0.501638
0.501555
0.501382
0.501076
0.500559
0.499713
0.498361
0.496249
0.493027
0.488232
0.481278
0.471459
0.457972
0.439975
0.416676
0.387465
0.352073
0.310757
0.264456
0.214904
0.164614
0.116703
0.0745213
0.041058
0.018113
0.00553906
0.000844102
2.92495e-05
0.0696663
0.199395
0.310328
0.404199
0.481633
0.544956
0.596076
0.636658
0.668274
0.692411
0.710431
0.723572
0.732926
0.73942
0.743815
0.746712
0.748568
0.749723
0.750416
0.750812
0.751018
0.751094
0.751068
0.75094
0.750672
0.750199
0.749402
0.748097
0.74601
0.74275
0.737779
0.730384
0.719668
0.704549
0.683805
0.65616
0.620424
0.575698
0.521624
0.458667
0.388371
0.31353
0.238146
0.167081
0.105374
0.0572824
0.0249386
0.0075403
0.00113986
3.93134e-05
0.0945097
0.270813
0.424485
0.55539
0.663678
0.752003
0.823035
0.87922
0.922832
0.956027
0.98076
0.998771
1.01158
1.02047
1.02649
1.03045
1.033
1.03458
1.03553
1.03607
1.03636
1.03646
1.03642
1.03623
1.03585
1.03517
1.03404
1.03218
1.02921
1.02457
1.0175
1.007
0.991783
0.970347
0.940978
0.901904
0.851494
0.788539
0.712616
0.624475
0.52642
0.422546
0.318669
0.221697
0.138462
0.0745289
0.032154
0.00965005
0.0014513
4.98952e-05
0.121015
0.345691
0.544147
0.714566
0.856277
0.971804
1.06447
1.13757
1.19414
1.23707
1.26898
1.29218
1.30866
1.32009
1.32783
1.33292
1.33619
1.33823
1.33945
1.34014
1.3405
1.34063
1.34057
1.34031
1.3398
1.3389
1.33738
1.3349
1.33095
1.32477
1.31536
1.30139
1.28119
1.25276
1.2139
1.1623
1.09588
1.01316
0.913666
0.798484
0.67073
0.535904
0.401861
0.27782
0.17224
0.0920388
0.0394534
0.0117796
0.00176571
6.06669e-05
0.147859
0.41984
0.662298
0.872206
1.04767
1.19095
1.30574
1.39613
1.46594
1.51877
1.55797
1.58641
1.6066
1.62058
1.63003
1.63626
1.64025
1.64274
1.64423
1.64508
1.64551
1.64565
1.64557
1.64524
1.64459
1.64344
1.64152
1.63839
1.63339
1.6256
1.61374
1.59616
1.57078
1.53514
1.4865
1.4221
1.33946
1.23682
1.11374
0.971618
0.81428
0.648448
0.484079
0.333278
0.205605
0.109325
0.0466484
0.0138664
0.00206934
7.09087e-05
0.173804
0.489828
0.773365
1.02028
1.22772
1.3978
1.53407
1.64125
1.72393
1.7864
1.83265
1.86616
1.88991
1.90634
1.91745
1.92476
1.92944
1.93236
1.9341
1.93509
1.93559
1.93575
1.93563
1.93522
1.93442
1.93303
1.93071
1.92692
1.92089
1.9115
1.89723
1.8761
1.84564
1.80296
1.74488
1.6682
1.57012
1.44877
1.30376
1.13681
0.952138
0.756964
0.56287
0.386562
0.237938
0.126295
0.0538113
0.0159641
0.00237173
8.02392e-05
0.19779
0.553116
0.873319
1.15296
1.38931
1.58398
1.74011
1.86285
1.95749
2.02893
2.08174
2.11996
2.14701
2.16572
2.17834
2.18665
2.19197
2.19527
2.19725
2.19836
2.19892
2.19908
2.19893
2.19843
2.19749
2.19585
2.19314
2.18873
2.18172
2.17082
2.15429
2.12984
2.09466
2.04546
1.97868
1.89082
1.77891
1.64111
1.4773
1.28955
1.08218
0.861302
0.637835
0.436963
0.268766
0.142871
0.0610648
0.0182041
0.00273378
9.42237e-05
0.219046
0.608151
0.959652
1.26744
1.52874
1.74464
1.91836
2.05494
2.16024
2.2397
2.29839
2.34083
2.37083
2.39156
2.40555
2.41474
2.42062
2.42427
2.42645
2.42767
2.42827
2.42843
2.42823
2.42765
2.42656
2.4247
2.42162
2.41664
2.40875
2.39649
2.37791
2.35047
2.31106
2.25605
2.18158
2.08395
1.96019
1.80881
1.63035
1.42764
1.20516
0.965169
0.712728
0.487081
0.299448
0.159513
0.0682927
0.0202851
0.00301303
0.000101782
0.237135
0.654322
1.03173
1.36308
1.64455
1.87812
2.06689
2.21534
2.3298
2.41616
2.47993
2.52601
2.55858
2.58106
2.59622
2.60618
2.61255
2.61649
2.61884
2.62014
2.62077
2.62091
2.62066
2.61999
2.61876
2.61669
2.61328
2.6078
2.59912
2.58567
2.56531
2.53528
2.49219
2.43213
2.35098
2.24494
2.11125
1.94916
1.76063
1.55038
1.32414
1.07032
0.790531
0.543204
0.337662
0.182975
0.0799473
0.0241894
0.00364367
0.000116201
0.251951
0.691762
1.08993
1.44012
1.7378
1.9857
2.18656
2.3448
2.46682
2.55893
2.62694
2.67607
2.71078
2.73474
2.75089
2.76149
2.76826
2.77245
2.77493
2.7763
2.77693
2.77705
2.77674
2.77598
2.77462
2.77234
2.76864
2.76271
2.75336
2.73889
2.71703
2.68479
2.63856
2.57417
2.48724
2.37384
2.23146
2.06051
1.86568
1.65659
1.52145
1.20564
0.898424
0.625558
0.405934
0.232848
0.110809
0.0388329
0.00767408
0.000357043
0.263653
0.721147
1.13548
1.50038
1.81096
2.06965
2.27985
2.44599
2.57408
2.67083
2.74227
2.79387
2.83033
2.85549
2.87243
2.88356
2.89066
2.89504
2.89763
2.89904
2.89967
2.89975
2.89938
2.89852
2.89701
2.89455
2.89058
2.88427
2.87435
2.85904
2.83592
2.80185
2.75299
2.68492
2.59297
2.47288
2.322
2.14137
1.93816
1.72193
1.52868
1.22104
0.885096
0.613733
0.401151
0.233349
0.111914
0.0394578
0.00780654
0.000319467
0.272583
0.743489
1.17006
1.54613
1.86657
2.13323
2.35051
2.52274
2.65557
2.75592
2.83004
2.8836
2.92143
2.94754
2.96513
2.97667
2.98403
2.98856
2.99122
2.99265
2.99327
2.9933
2.99285
2.99189
2.99025
2.98761
2.9834
2.97675
2.96636
2.95036
2.92622
2.89067
2.83966
2.76854
2.67236
2.54637
2.38701
2.19382
1.97307
1.73219
1.50595
1.17157
0.832673
0.57514
0.378472
0.21963
0.104733
0.037068
0.00739445
0.000295979
0.279172
0.759957
1.19552
1.57984
1.90759
2.18013
2.40259
2.57932
2.71568
2.81876
2.89492
2.94996
2.98885
3.0157
3.03378
3.04564
3.0532
3.05785
3.06056
3.062
3.06259
3.06256
3.06203
3.06096
3.05919
3.05637
3.05195
3.04501
3.03422
3.01767
2.99273
2.956
2.9033
2.82977
2.73028
2.59988
2.43455
2.23249
1.99855
1.74323
1.51057
1.14912
0.813139
0.563726
0.371865
0.190855
0.0889183
0.0309439
0.00576092
0.00018531
0.283871
0.771707
1.21369
1.60392
1.93695
2.21379
2.43988
2.61976
2.75872
2.86379
2.94146
2.99761
3.0373
3.0647
3.08315
3.09526
3.10297
3.1077
3.11044
3.11188
3.11243
3.11234
3.11172
3.11054
3.10863
3.10566
3.10103
3.09385
3.08274
3.06574
3.04019
3.00258
2.9486
2.87325
2.77118
2.63738
2.46787
2.26064
2.01989
1.76049
1.53539
1.1668
0.833123
0.582922
0.38399
0.199121
0.095024
0.0330658
0.00652052
0.000232639
0.287102
0.779795
1.22621
1.62054
1.95731
2.23724
2.46569
2.64769
2.78852
2.89501
2.97377
3.03073
3.07099
3.0988
3.11754
3.12983
3.13765
3.14244
3.1452
3.14662
3.14713
3.14698
3.14627
3.14498
3.14294
3.13981
3.13501
3.12761
3.11624
3.0989
3.0729
3.03467
2.97984
2.90329
2.79957
2.66358
2.49161
2.28209
2.03924
1.78027
1.55577
1.19476
0.860335
0.604905
0.398234
0.203464
0.0968269
0.0339644
0.00689168
0.000248713
0.289221
0.785105
1.23444
1.63151
1.97083
2.2529
2.48281
2.66617
2.8083
2.91575
2.99528
3.05281
3.09349
3.1216
3.14055
3.15298
3.16088
3.16571
3.16848
3.16988
3.17035
3.17013
3.16934
3.16795
3.16578
3.16252
3.15755
3.14998
3.13839
3.1208
3.09447
3.05582
3.00043
2.92315
2.81849
2.68129
2.50795
2.29733
2.05349
1.79353
1.56602
1.20954
0.873481
0.615712
0.405963
0.207701
0.101067
0.0361468
0.00744937
0.000254349
0.290516
0.788343
1.23945
1.63821
1.97918
2.26266
2.4934
2.67757
2.82055
2.92865
3.0087
3.06662
3.10761
3.13593
3.15502
3.16755
3.17552
3.18038
3.18315
3.18454
3.18497
3.1847
3.18383
3.18234
3.18008
3.17668
3.17159
3.16386
3.15211
3.13433
3.10778
3.06885
3.01313
2.93544
2.8303
2.69255
2.51861
2.30754
2.06326
1.8024
1.5721
1.21517
0.878136
0.620203
0.410406
0.213305
0.104461
0.0384233
0.00746381
0.000475331
0.291211
0.790071
1.24211
1.64175
1.98363
2.26793
2.49906
2.68364
2.82715
2.93566
3.01603
3.07422
3.11541
3.14389
3.16309
3.1757
3.18371
3.18859
3.19137
3.19274
3.19314
3.19283
3.1919
3.19034
3.18799
3.1845
3.1793
3.17145
3.15958
3.14167
3.11496
3.07588
3.01996
2.94207
2.83673
2.6988
2.52469
2.31353
2.06918
1.80813
1.57894
1.22109
0.883788
0.624993
0.415535
0.218143
0.108922
0.0412643
0.00860842
0.000580365
0.29148
0.790802
1.24336
1.6435
1.9859
2.27069
2.50199
2.68675
2.83056
2.93931
3.01987
3.07822
3.11953
3.1481
3.16738
3.18003
3.18808
3.19297
3.19576
3.19712
3.1975
3.19715
3.19619
3.19458
3.19216
3.18861
3.18333
3.17541
3.16346
3.14547
3.11869
3.07953
3.02354
2.9456
2.84024
2.70238
2.52841
2.31757
2.07381
1.81375
1.58553
1.22965
0.892274
0.631571
0.420046
0.219623
0.112518
0.0447434
0.0137918
0.00142452
0.291399
0.79068
1.24334
1.64363
1.98624
2.27124
2.5026
2.68736
2.8313
2.94019
3.02085
3.07927
3.12064
3.14926
3.16857
3.18124
3.1893
3.1942
3.19699
3.19834
3.19872
3.19836
3.19738
3.19575
3.19331
3.18973
3.18443
3.17648
3.1645
3.14648
3.11968
3.08049
3.02447
2.94651
2.84115
2.70331
2.52941
2.31873
2.0753
1.81551
1.58695
1.23523
0.897962
0.635783
0.422419
0.222022
0.113934
0.0467079
0.0157063
0.00267143
0.291279
0.790398
1.24298
1.64326
1.98584
2.27083
2.5022
2.68695
2.83083
2.93971
3.02035
3.07876
3.12011
3.14872
3.16801
3.18068
3.18873
3.19364
3.19642
3.19778
3.19815
3.1978
3.19683
3.19522
3.1928
3.18925
3.18397
3.17606
3.16412
3.14615
3.1194
3.08026
3.0243
2.94638
2.84105
2.70319
2.5292
2.31835
2.0747
1.81429
1.58282
1.23345
0.895882
0.634116
0.420875
0.220468
0.112358
0.0451901
0.0140371
0.00162034
0.290905
0.789452
1.24147
1.64127
1.9834
2.26798
2.49918
2.68378
2.82741
2.93613
3.01664
3.07495
3.11623
3.14478
3.16404
3.17668
3.18472
3.18962
3.1924
3.19377
3.19417
3.19385
3.19291
3.19134
3.18898
3.18549
3.1803
3.17247
3.16063
3.14276
3.11611
3.07707
3.0212
2.94335
2.83803
2.70012
2.52594
2.31465
2.07024
1.80849
1.57458
1.22499
0.887765
0.627526
0.415709
0.216406
0.108631
0.0416876
0.0113619
0.000609889
0.290239
0.787746
1.23875
1.63756
1.97875
2.26247
2.49321
2.67741
2.82056
2.92892
3.00916
3.06726
3.10839
3.13683
3.15601
3.16861
3.17662
3.18151
3.1843
3.18569
3.18612
3.18585
3.18497
3.18348
3.1812
3.17782
3.17274
3.16505
3.15335
3.13564
3.10916
3.07031
3.01464
2.93697
2.83183
2.69405
2.51992
2.30852
2.06383
1.80205
1.56858
1.21681
0.879684
0.620828
0.409737
0.211141
0.104555
0.0385496
0.00985204
0.000486522
0.288837
0.784258
1.23335
1.63039
1.96993
2.25221
2.48206
2.66548
2.80783
2.91559
2.99537
3.05313
3.09402
3.12229
3.14136
3.15389
3.16187
3.16675
3.16955
3.17097
3.17144
3.17123
3.17043
3.16903
3.16687
3.16361
3.15868
3.15116
3.13964
3.12213
3.09588
3.0573
3.00192
2.9246
2.81986
2.68253
2.50889
2.29796
2.05368
1.79278
1.56059
1.21162
0.875578
0.616797
0.405124
0.205695
0.1009
0.0362152
0.00762855
0.000265162
0.286665
0.778792
1.22486
1.6191
1.95607
2.23613
2.46446
2.64657
2.78768
2.89449
2.97356
3.03081
3.07133
3.09935
3.11826
3.13069
3.13862
3.14348
3.14629
3.14774
3.14827
3.14812
3.14742
3.14613
3.1441
3.141
3.13624
3.12891
3.11763
3.10039
3.07446
3.03627
2.98138
2.90469
2.80074
2.66438
2.49192
2.28237
2.03962
1.78082
1.54923
1.20451
0.869552
0.611544
0.400302
0.200806
0.0966789
0.0337493
0.00669803
0.000251982
0.283433
0.770677
1.21225
1.60236
1.93555
2.21242
2.43834
2.61835
2.75764
2.86305
2.94107
2.99756
3.03754
3.0652
3.08388
3.09616
3.10401
3.10884
3.11166
3.11314
3.11372
3.11365
3.11304
3.11187
3.10998
3.10705
3.1025
3.09541
3.08441
3.06752
3.04203
3.00441
2.95029
2.87462
2.77202
2.63742
2.46712
2.26001
2.01935
1.76078
1.52037
1.18287
0.850015
0.596124
0.390516
0.197738
0.0945097
0.0331364
0.0063474
0.000230246
0.278823
0.759114
1.19428
1.5785
1.90633
2.17876
2.40102
2.57786
2.71456
2.81798
2.89451
2.94992
2.98914
3.01629
3.03463
3.04671
3.05444
3.05921
3.06202
3.06352
3.06415
3.06416
3.06365
3.06261
3.06088
3.05813
3.0538
3.04698
3.03632
3.01988
2.99499
2.95818
2.90518
2.83104
2.73053
2.59875
2.43218
2.22976
1.99432
1.7392
1.50187
1.1537
0.818795
0.569955
0.374952
0.190976
0.0888425
0.0310922
0.00582248
0.00018452
0.272453
0.743136
1.16944
1.54547
1.86589
2.13225
2.34926
2.52157
2.65469
2.75535
2.82983
2.88375
2.92193
2.94837
2.96624
2.97803
2.98559
2.99028
2.99305
2.99457
2.99524
2.99532
2.99491
2.994
2.99242
2.98987
2.98578
2.97928
2.96904
2.95317
2.92906
2.89335
2.84187
2.76987
2.67232
2.54457
2.38348
2.18853
1.96309
1.72048
1.5026
1.14446
0.807661
0.556923
0.366285
0.21081
0.0988324
0.0351319
0.00704279
0.000291791
0.263897
0.721654
1.13598
1.50095
1.81137
2.06954
2.27938
2.4455
2.57379
2.67075
2.74248
2.79442
2.83121
2.8567
2.87396
2.88535
2.89267
2.89723
2.89995
2.90146
2.90217
2.90231
2.902
2.9012
2.89979
2.89744
2.89362
2.88748
2.87774
2.86257
2.83947
2.80518
2.75572
2.68653
2.59286
2.47044
2.31671
2.13234
1.92352
1.70987
1.53696
1.19011
0.846972
0.584936
0.383177
0.223306
0.10693
0.0373588
0.00732665
0.000288517
0.252728
0.693533
1.0921
1.44247
1.73982
1.98699
2.18738
2.34546
2.46746
2.55964
2.62783
2.67721
2.71222
2.73649
2.75293
2.76381
2.77082
2.7752
2.77783
2.77932
2.78004
2.78024
2.78
2.77932
2.77806
2.77593
2.77241
2.76668
2.75753
2.74322
2.72137
2.68887
2.64195
2.57629
2.48741
2.37134
2.22586
2.05229
1.85858
1.66835
1.48501
1.23142
0.903455
0.626293
0.408574
0.236374
0.112724
0.0394403
0.00771396
0.000319964
0.238582
0.657721
1.03607
1.3677
1.64866
1.88132
2.06945
2.21753
2.33169
2.41791
2.48169
2.5279
2.56068
2.58343
2.59886
2.60909
2.61569
2.61984
2.62234
2.62378
2.6245
2.62474
2.62457
2.62401
2.6229
2.62099
2.61778
2.61253
2.60408
2.5908
2.57045
2.54015
2.49633
2.43496
2.35183
2.24321
2.10684
1.94365
1.76131
1.58429
1.37012
1.08829
0.806917
0.553141
0.346311
0.188503
0.0820123
0.0248638
0.00374249
0.000119711
0.221243
0.61342
0.966515
1.27466
1.53533
1.75015
1.92299
2.05889
2.16359
2.24264
2.30114
2.34355
2.37366
2.39458
2.40879
2.41822
2.42433
2.42818
2.43052
2.43187
2.43258
2.43283
2.43273
2.43227
2.43132
2.42963
2.42677
2.42204
2.41439
2.40232
2.38376
2.35605
2.31593
2.25963
2.18325
2.08316
1.95664
1.80206
1.62099
1.43493
1.23331
0.990899
0.7392
0.508676
0.31525
0.168408
0.0722101
0.0215441
0.00320306
0.000108764
0.200728
0.560289
0.882782
1.16281
1.39846
1.59196
1.74695
1.86863
1.96232
2.03308
2.08547
2.12349
2.15051
2.16931
2.1821
2.19061
2.19613
2.19962
2.20175
2.203
2.20367
2.20393
2.20388
2.20351
2.20271
2.20126
2.19877
2.19462
2.18786
2.17716
2.16065
2.13595
2.10009
2.04967
1.98117
1.8914
1.77812
1.63942
1.47186
1.28659
1.08735
0.870627
0.651166
0.448386
0.277357
0.147761
0.0630809
0.0187223
0.00277928
9.45316e-05
0.177363
0.498652
0.785164
1.03254
1.23922
1.40801
1.54288
1.64864
1.73007
1.7916
1.83721
1.87035
1.89394
1.91038
1.92157
1.92903
1.93389
1.93696
1.93885
1.93996
1.94057
1.94083
1.94082
1.94053
1.93987
1.93867
1.93657
1.93303
1.92725
1.91805
1.90382
1.88246
1.85136
1.80751
1.74763
1.66873
1.56891
1.44745
1.30121
1.13409
0.951914
0.759335
0.567341
0.390229
0.240906
0.128089
0.0545844
0.0161736
0.00239911
8.15907e-05
0.151829
0.42979
0.67577
0.886257
1.06099
1.20285
1.31598
1.40467
1.47301
1.52471
1.56309
1.59103
1.61093
1.62483
1.63431
1.64063
1.64475
1.64737
1.64899
1.64995
1.65048
1.65072
1.65073
1.65051
1.65
1.64903
1.64732
1.64442
1.63966
1.63204
1.62022
1.60245
1.57652
1.53987
1.48967
1.42311
1.33812
1.2343
1.11028
0.967614
0.810898
0.646252
0.482952
0.332337
0.205179
0.10907
0.0464653
0.0137622
0.00204047
6.93697e-05
0.12512
0.356035
0.558356
0.729417
0.870459
0.984504
1.07535
1.14662
1.20161
1.2433
1.2743
1.2969
1.31303
1.3243
1.33201
1.33715
1.34051
1.34265
1.34397
1.34476
1.34521
1.34542
1.34544
1.34529
1.3449
1.34416
1.34283
1.34056
1.3368
1.33078
1.3214
1.30724
1.28655
1.25724
1.21706
1.16365
1.09498
1.01041
0.909485
0.793298
0.665267
0.530793
0.39743
0.274144
0.169653
0.0903639
0.0385491
0.0114242
0.00169343
5.7536e-05
0.0984393
0.280706
0.438371
0.569925
0.677563
0.764411
0.833624
0.888022
0.930098
0.962064
0.985883
1.00327
1.0157
1.02439
1.03034
1.03431
1.03691
1.03857
1.0396
1.04022
1.04057
1.04074
1.04077
1.04067
1.04039
1.03985
1.03887
1.03719
1.03439
1.02987
1.02282
1.01215
0.996504
0.974289
0.943779
0.90318
0.850834
0.785947
0.708333
0.618869
0.520057
0.416068
0.312654
0.216611
0.13468
0.0720505
0.0308406
0.00915664
0.00135757
4.60875e-05
0.0731435
0.208077
0.32281
0.417267
0.494077
0.556026
0.605503
0.644505
0.674756
0.697791
0.714984
0.727552
0.736543
0.742835
0.747141
0.750023
0.751907
0.753111
0.753861
0.754313
0.754571
0.754702
0.754733
0.754671
0.754486
0.754115
0.753439
0.752268
0.750312
0.747147
0.742188
0.734659
0.723584
0.707819
0.686117
0.657204
0.619879
0.573434
0.517726
0.453392
0.382169
0.306985
0.231888
0.161688
0.101262
0.0545655
0.0234961
0.00700097
0.00103896
3.52473e-05
0.0505256
0.142533
0.219123
0.281341
0.331768
0.372528
0.405205
0.431055
0.451159
0.466497
0.47796
0.486345
0.492346
0.496546
0.499422
0.501347
0.502606
0.503412
0.503914
0.504218
0.504393
0.504484
0.504509
0.504474
0.504361
0.504127
0.503698
0.502948
0.501688
0.499641
0.496423
0.491524
0.484301
0.473992
0.459766
0.440784
0.416259
0.385676
0.348917
0.306395
0.259216
0.209256
0.159109
0.11188
0.0707821
0.038561
0.0167676
0.00502718
0.000747447
2.53514e-05
0.0316901
0.0879399
0.133599
0.170309
0.200085
0.224267
0.243742
0.2592
0.271247
0.280449
0.28733
0.292364
0.295966
0.298488
0.300214
0.301369
0.302126
0.302609
0.302912
0.303095
0.303201
0.303258
0.303276
0.303258
0.303196
0.303064
0.302818
0.302386
0.301655
0.300462
0.29858
0.295708
0.291464
0.285393
0.276997
0.265776
0.251267
0.233154
0.211354
0.186108
0.158056
0.128277
0.0982616
0.069794
0.0447414
0.0247629
0.0109406
0.00331702
0.000494697
1.67615e-05
0.017378
0.0469134
0.0702348
0.0889243
0.104172
0.116629
0.126703
0.134717
0.140969
0.145746
0.149318
0.15193
0.153799
0.155107
0.156001
0.1566
0.156992
0.157243
0.1574
0.157495
0.157551
0.157581
0.157592
0.157584
0.157555
0.15749
0.157369
0.157153
0.156786
0.156184
0.15523
0.153769
0.151605
0.148505
0.144209
0.138459
0.131019
0.121725
0.110533
0.0975644
0.0831453
0.0678192
0.0523312
0.0375689
0.0244586
0.0138288
0.00626781
0.00194294
0.000292168
9.86587e-06
0.00777879
0.0201269
0.0296498
0.037336
0.0436642
0.0488612
0.0530731
0.056426
0.0590419
0.0610398
0.062533
0.0636246
0.0644051
0.0649509
0.0653243
0.0655742
0.0657377
0.0658423
0.0659078
0.0659477
0.0659711
0.065984
0.0659889
0.0659866
0.0659753
0.06595
0.0659016
0.0658148
0.0656659
0.0654201
0.0650287
0.0644273
0.0635345
0.0622526
0.0604734
0.0580888
0.0550012
0.0511428
0.046496
0.0411122
0.035127
0.0287644
0.0223288
0.0161807
0.0106946
0.00619805
0.00291528
0.000943478
0.000145872
4.93334e-06
0.00246152
0.00601364
0.00873698
0.0109669
0.0128157
0.0143366
0.0155693
0.0165501
0.0173149
0.0178988
0.018335
0.0186537
0.0188815
0.0190408
0.0191497
0.0192226
0.0192703
0.0193009
0.01932
0.0193317
0.0193385
0.0193424
0.019344
0.0193435
0.0193405
0.0193336
0.0193201
0.0192957
0.0192533
0.0191828
0.01907
0.0188959
0.0186365
0.0182634
0.0177446
0.0170483
0.0161461
0.0150186
0.0136609
0.0120888
0.0103423
0.00848747
0.0066122
0.00481987
0.00321887
0.00190453
0.000933763
0.000323446
5.36792e-05
1.8578e-06
0.000388903
0.000899858
0.0012982
0.0016268
0.00189928
0.00212321
0.00230452
0.00244865
0.00256097
0.00264667
0.00271066
0.00275741
0.00279082
0.00281417
0.00283014
0.00284083
0.00284782
0.0028523
0.00285511
0.00285683
0.00285784
0.00285843
0.00285868
0.00285864
0.00285825
0.00285731
0.00285543
0.00285196
0.00284588
0.0028357
0.00281929
0.0027938
0.00275568
0.00270069
0.00262406
0.00252105
0.00238746
0.00222045
0.00201936
0.00178665
0.00152841
0.00125458
0.000978256
0.000714365
0.000478427
0.000285159
0.000143447
5.31593e-05
1.005e-05
3.79342e-07
1.33783e-05
3.08982e-05
4.44376e-05
5.55757e-05
6.48007e-05
7.23752e-05
7.85023e-05
8.33693e-05
8.71589e-05
9.00484e-05
9.22047e-05
9.37791e-05
9.49036e-05
9.56895e-05
9.62267e-05
9.6586e-05
9.68211e-05
9.69716e-05
9.70658e-05
9.7124e-05
9.71579e-05
9.71782e-05
9.71874e-05
9.71871e-05
9.71754e-05
9.71458e-05
9.70853e-05
9.69721e-05
9.67717e-05
9.6433e-05
9.58834e-05
9.50251e-05
9.37363e-05
9.18713e-05
8.92662e-05
8.57577e-05
8.12024e-05
7.55029e-05
6.86393e-05
6.06963e-05
5.18847e-05
4.25498e-05
3.31517e-05
2.4201e-05
1.61927e-05
9.62031e-06
4.84579e-06
1.83455e-06
3.75533e-07
2.42324e-08
1.02966e-05
2.65037e-07
1.5894e-08
1.18906e-09
6.87366e-11
2.41018e-12
8.29607e-14
1.44771e-15
1.91175e-15
1.46247e-15
1.42804e-15
1.15598e-15
3.61627e-15
3.55957e-14
1.26022e-12
2.2662e-11
4.61351e-10
9.2274e-09
1.83595e-07
4.05788e-06
0.000213392
1.25207e-05
7.32536e-07
4.73571e-08
3.58384e-09
2.30795e-10
8.18889e-12
1.28796e-13
3.19172e-14
2.94291e-14
2.89983e-14
1.15705e-14
2.8931e-13
6.46305e-12
1.35005e-10
2.47581e-09
4.78806e-08
9.36846e-07
1.83389e-05
0.000351972
6.38569e-05
2.6835e-06
1.48021e-07
1.03647e-08
7.30553e-10
4.60429e-11
2.13729e-12
3.78566e-14
7.05919e-15
9.64613e-15
9.97954e-15
1.53747e-14
1.4337e-13
1.86082e-12
3.05609e-11
5.45786e-10
1.03831e-08
2.02747e-07
4.01771e-06
8.64166e-05
2.40263e-08
3.72258e-07
1.82442e-06
4.84091e-06
9.57287e-06
1.59921e-05
2.37993e-05
3.25234e-05
4.16544e-05
5.06956e-05
5.92144e-05
6.68855e-05
7.35102e-05
7.90109e-05
8.34104e-05
8.68046e-05
8.93329e-05
9.11527e-05
9.24186e-05
9.32701e-05
9.38239e-05
9.41723e-05
9.43846e-05
9.45107e-05
9.45844e-05
9.4628e-05
9.46553e-05
9.46743e-05
9.46894e-05
9.47026e-05
9.47145e-05
9.47252e-05
9.47347e-05
9.47428e-05
9.47497e-05
9.47557e-05
9.47612e-05
9.47669e-05
9.47734e-05
9.47814e-05
9.47917e-05
9.4805e-05
9.48218e-05
9.48423e-05
9.48662e-05
9.48923e-05
9.49188e-05
9.49434e-05
9.49633e-05
9.49763e-05
9.49811e-05
9.49777e-05
9.49668e-05
9.49504e-05
9.49307e-05
9.491e-05
9.48902e-05
9.48721e-05
9.48568e-05
9.48448e-05
9.48358e-05
9.48293e-05
9.4825e-05
9.48223e-05
9.48208e-05
9.48201e-05
9.48199e-05
9.48202e-05
9.48204e-05
9.48203e-05
9.48205e-05
9.48207e-05
9.48209e-05
9.48208e-05
9.48212e-05
9.48212e-05
9.48209e-05
9.48209e-05
9.48212e-05
9.4821e-05
9.48209e-05
9.4821e-05
9.48212e-05
9.48218e-05
9.4822e-05
9.48223e-05
9.48228e-05
9.48231e-05
9.48223e-05
9.48195e-05
9.48128e-05
9.47989e-05
9.47728e-05
9.47287e-05
9.466e-05
9.45626e-05
9.444e-05
9.43085e-05
9.41879e-05
9.40782e-05
3.7608e-07
9.94806e-06
5.25734e-05
0.000142154
0.00028265
0.000473003
0.000704632
0.000963533
0.00123439
0.00150248
0.001755
0.00198236
0.00217868
0.00234169
0.00247206
0.00257265
0.00264759
0.00270155
0.00273911
0.00276438
0.00278084
0.0027912
0.00279752
0.00280128
0.00280348
0.00280479
0.00280561
0.00280618
0.00280664
0.00280703
0.00280739
0.00280771
0.00280799
0.00280824
0.00280845
0.00280863
0.00280879
0.00280896
0.00280916
0.0028094
0.00280971
0.00281011
0.00281062
0.00281123
0.00281195
0.00281274
0.00281355
0.0028143
0.00281491
0.00281531
0.00281547
0.00281539
0.00281507
0.0028146
0.00281402
0.00281341
0.00281283
0.0028123
0.00281184
0.00281148
0.00281122
0.00281102
0.00281089
0.00281081
0.00281077
0.00281075
0.00281074
0.00281075
0.00281075
0.00281075
0.00281076
0.00281076
0.00281077
0.00281077
0.00281078
0.00281078
0.00281077
0.00281077
0.00281078
0.00281077
0.00281077
0.00281077
0.00281078
0.0028108
0.0028108
0.00281081
0.00281083
0.00281083
0.00281081
0.00281073
0.00281052
0.0028101
0.00280932
0.00280799
0.00280593
0.002803
0.0027993
0.00279537
0.00279188
0.00278889
1.84799e-06
5.30892e-05
0.000318794
0.000920314
0.0018789
0.00317615
0.00475479
0.00652116
0.00836882
0.0101959
0.0119154
0.0134626
0.0147979
0.0159062
0.0167925
0.0174764
0.0179861
0.0183534
0.0186093
0.0187818
0.0188942
0.0189653
0.0190088
0.0190347
0.01905
0.0190592
0.0190649
0.019069
0.0190722
0.019075
0.0190776
0.0190798
0.0190819
0.0190836
0.0190851
0.0190864
0.0190876
0.0190888
0.0190902
0.0190919
0.0190941
0.019097
0.0191007
0.0191051
0.0191104
0.0191162
0.0191222
0.0191278
0.0191325
0.0191357
0.0191373
0.0191371
0.0191353
0.0191323
0.0191285
0.0191245
0.0191206
0.019117
0.0191139
0.0191114
0.0191096
0.0191083
0.0191074
0.0191068
0.0191065
0.0191063
0.0191062
0.0191063
0.0191063
0.0191063
0.0191064
0.0191064
0.0191064
0.0191064
0.0191064
0.0191065
0.0191064
0.0191064
0.0191065
0.0191064
0.0191064
0.0191064
0.0191065
0.0191066
0.0191066
0.0191067
0.0191068
0.0191068
0.0191066
0.019106
0.0191045
0.0191015
0.0190959
0.0190864
0.0190715
0.0190503
0.0190234
0.0189954
0.0189741
0.018963
4.92788e-06
0.000144508
0.000929626
0.00286995
0.00610647
0.0105453
0.0159647
0.0220401
0.0284004
0.0346886
0.0406028
0.0459202
0.0505063
0.0543106
0.0573519
0.0596985
0.061448
0.0627091
0.0635888
0.0641826
0.0645707
0.0648164
0.0649674
0.065058
0.0651117
0.065144
0.0651647
0.0651793
0.0651911
0.0652015
0.065211
0.0652195
0.065227
0.0652335
0.065239
0.0652439
0.0652483
0.0652529
0.0652581
0.0652646
0.065273
0.0652839
0.0652978
0.065315
0.0653353
0.065358
0.0653818
0.0654047
0.0654245
0.0654392
0.0654475
0.0654493
0.0654451
0.0654364
0.0654246
0.0654113
0.0653983
0.0653862
0.0653755
0.0653668
0.0653603
0.0653556
0.0653524
0.0653503
0.0653491
0.0653485
0.0653482
0.0653483
0.0653484
0.0653484
0.0653485
0.0653486
0.0653487
0.0653487
0.0653488
0.0653489
0.0653488
0.0653486
0.0653488
0.0653488
0.0653488
0.0653488
0.065349
0.0653492
0.0653494
0.0653497
0.0653499
0.0653499
0.065349
0.0653465
0.0653407
0.0653291
0.0653079
0.0652721
0.0652157
0.0651338
0.0650279
0.0649178
0.0648557
0.0649099
9.81115e-06
0.000289419
0.00191564
0.00617317
0.0136299
0.0241303
0.0370972
0.0517101
0.0670483
0.0822281
0.0965063
0.109339
0.120402
0.129575
0.136905
0.14256
0.146776
0.149817
0.151939
0.153374
0.154313
0.154909
0.155277
0.155498
0.15563
0.15571
0.155762
0.1558
0.15583
0.155858
0.155883
0.155905
0.155926
0.155943
0.155958
0.155971
0.155983
0.155996
0.15601
0.156027
0.15605
0.15608
0.156119
0.156167
0.156225
0.15629
0.156361
0.15643
0.156492
0.156541
0.156572
0.156586
0.156584
0.156569
0.156544
0.156514
0.156484
0.156456
0.15643
0.156409
0.156392
0.15638
0.156372
0.156367
0.156364
0.156362
0.156361
0.156361
0.156361
0.156361
0.156362
0.156362
0.156362
0.156362
0.156362
0.156362
0.156362
0.156362
0.156362
0.156362
0.156362
0.156362
0.156363
0.156363
0.156364
0.156364
0.156364
0.156364
0.156361
0.156354
0.156337
0.156305
0.156248
0.156151
0.155997
0.155769
0.155462
0.155125
0.154962
0.15547
1.65368e-05
0.000488725
0.00327057
0.0107819
0.0244242
0.0441766
0.06898
0.0971925
0.126956
0.15649
0.1843
0.209302
0.230852
0.248715
0.262985
0.273992
0.282199
0.288119
0.292254
0.295052
0.296886
0.298051
0.298771
0.299206
0.299466
0.299625
0.299729
0.299807
0.299871
0.29993
0.299985
0.300035
0.30008
0.300119
0.300152
0.300181
0.300208
0.300236
0.300268
0.300308
0.30036
0.300428
0.300517
0.30063
0.300767
0.300926
0.301098
0.301273
0.301436
0.30157
0.301666
0.301722
0.301739
0.301727
0.301693
0.301641
0.301586
0.301533
0.301484
0.301441
0.301407
0.301382
0.301365
0.301354
0.301347
0.301343
0.301342
0.301341
0.301341
0.301342
0.301342
0.301342
0.301343
0.301343
0.301342
0.301343
0.301343
0.301342
0.301343
0.301343
0.301343
0.301343
0.301344