/*--------------------------------*- C++ -*----------------------------------*\
| =========                 |                                                 |
| \\      /  F ield         | foam-extend: Open Source CFD                    |
|  \\    /   O peration     | Version:     4.0                                |
|   \\  /    A nd           | Web:         http://www.foam-extend.org         |
|    \\/     M anipulation  |                                                 |
\*---------------------------------------------------------------------------*/
FoamFile
{
    version     2.0;
    format      ascii;
    class       volScalarField;
    location    "0.0003";
    object      nut;
}
// * * * * * * * * * * * * * * * * * * * * * * * * * * * * * * * * * * * * * //

dimensions      [0 2 -1 0 0 0 0];

internalField   nonuniform List<scalar> 
28770
(
5.90118e-13
1.4031e-12
2.06692e-12
2.68452e-12
3.17966e-12
3.60842e-12
3.96073e-12
4.24425e-12
4.46716e-12
4.63816e-12
4.76617e-12
4.85958e-12
4.92596e-12
4.97188e-12
5.00279e-12
5.023e-12
5.03583e-12
5.04371e-12
5.04838e-12
5.051e-12
5.05234e-12
5.05283e-12
5.05269e-12
5.05193e-12
5.05032e-12
5.0475e-12
5.04277e-12
5.03504e-12
5.0227e-12
5.00344e-12
4.97409e-12
4.9304e-12
4.86699e-12
4.77735e-12
4.65402e-12
4.4891e-12
4.27502e-12
4.00572e-12
3.67807e-12
3.29335e-12
2.85865e-12
2.38767e-12
1.90058e-12
1.42277e-12
9.82232e-13
6.05993e-13
3.15821e-13
1.23788e-13
2.74083e-14
2.09378e-15
1.23887e-10
2.46669e-10
3.56827e-10
4.61936e-10
5.47325e-10
6.20622e-10
6.81034e-10
7.29672e-10
7.67909e-10
7.97241e-10
8.19199e-10
8.35225e-10
8.46617e-10
8.545e-10
8.59808e-10
8.63282e-10
8.65488e-10
8.66845e-10
8.67649e-10
8.68101e-10
8.68332e-10
8.68418e-10
8.68394e-10
8.68264e-10
8.67986e-10
8.67501e-10
8.66685e-10
8.65352e-10
8.63225e-10
8.59906e-10
8.54845e-10
8.47314e-10
8.36384e-10
8.20931e-10
7.99672e-10
7.71244e-10
7.34346e-10
6.87936e-10
6.31476e-10
5.65196e-10
4.90324e-10
4.09227e-10
3.25392e-10
2.43194e-10
1.67455e-10
1.02801e-10
5.28983e-11
1.96355e-11
3.0324e-12
3.15949e-14
3.22932e-09
5.31337e-09
7.28832e-09
9.28089e-09
1.09704e-08
1.24135e-08
1.36069e-08
1.45694e-08
1.53268e-08
1.5908e-08
1.63431e-08
1.66607e-08
1.68866e-08
1.70431e-08
1.71486e-08
1.72177e-08
1.72617e-08
1.72888e-08
1.73049e-08
1.7314e-08
1.73187e-08
1.73204e-08
1.732e-08
1.73174e-08
1.73118e-08
1.73021e-08
1.72857e-08
1.72589e-08
1.72161e-08
1.71493e-08
1.70475e-08
1.68959e-08
1.66759e-08
1.63648e-08
1.59368e-08
1.53646e-08
1.46218e-08
1.36878e-08
1.25517e-08
1.12185e-08
9.71302e-09
8.0833e-09
6.39951e-09
4.74917e-09
3.22741e-09
1.9235e-09
9.1028e-10
2.58598e-10
2.11384e-11
1.4235e-13
3.10391e-08
4.29131e-08
5.49786e-08
6.79174e-08
7.95158e-08
8.95757e-08
9.79674e-08
1.04767e-07
1.10131e-07
1.14254e-07
1.17344e-07
1.19601e-07
1.21207e-07
1.22321e-07
1.23073e-07
1.23566e-07
1.23881e-07
1.24075e-07
1.24191e-07
1.24256e-07
1.2429e-07
1.24303e-07
1.243e-07
1.24281e-07
1.24241e-07
1.2417e-07
1.2405e-07
1.23855e-07
1.23544e-07
1.23057e-07
1.22315e-07
1.21211e-07
1.19607e-07
1.1734e-07
1.14221e-07
1.10049e-07
1.04636e-07
9.78273e-08
8.95456e-08
7.98246e-08
6.8844e-08
5.69477e-08
4.46364e-08
3.25314e-08
2.13184e-08
1.17264e-08
4.63946e-09
9.54974e-10
5.80102e-11
3.60837e-13
1.67205e-07
2.04425e-07
2.45868e-07
2.92851e-07
3.37257e-07
3.76876e-07
4.10501e-07
4.38019e-07
4.59867e-07
4.76726e-07
4.8939e-07
4.98658e-07
5.05265e-07
5.09853e-07
5.12953e-07
5.14991e-07
5.16293e-07
5.171e-07
5.17582e-07
5.17856e-07
5.17997e-07
5.18051e-07
5.18038e-07
5.17957e-07
5.17786e-07
5.17484e-07
5.16976e-07
5.16145e-07
5.14818e-07
5.12744e-07
5.0958e-07
5.04869e-07
4.98031e-07
4.8836e-07
4.75053e-07
4.57256e-07
4.34148e-07
4.05069e-07
3.69664e-07
3.28048e-07
2.80938e-07
2.29744e-07
1.76566e-07
1.24175e-07
7.61233e-08
3.70909e-08
1.21704e-08
2.06442e-09
1.13528e-10
6.902e-13
6.16261e-07
6.98437e-07
7.98564e-07
9.17914e-07
1.03589e-06
1.14448e-06
1.23875e-06
1.31706e-06
1.37988e-06
1.42871e-06
1.46557e-06
1.49264e-06
1.51199e-06
1.52546e-06
1.53458e-06
1.54059e-06
1.54444e-06
1.54683e-06
1.54826e-06
1.54907e-06
1.5495e-06
1.54965e-06
1.54961e-06
1.54936e-06
1.54883e-06
1.5479e-06
1.54634e-06
1.54378e-06
1.53968e-06
1.53328e-06
1.52351e-06
1.50896e-06
1.48782e-06
1.45792e-06
1.41674e-06
1.36161e-06
1.28994e-06
1.19961e-06
1.08937e-06
9.59428e-07
8.11873e-07
6.51157e-07
4.84574e-07
3.23025e-07
1.81827e-07
7.86023e-08
2.26663e-08
3.51021e-09
1.86011e-10
1.11898e-12
1.73849e-06
1.89209e-06
2.08105e-06
2.31881e-06
2.56279e-06
2.79397e-06
2.99944e-06
3.17318e-06
3.31437e-06
3.42522e-06
3.50954e-06
3.57182e-06
3.61653e-06
3.64776e-06
3.66898e-06
3.68299e-06
3.69198e-06
3.69757e-06
3.70093e-06
3.70284e-06
3.70383e-06
3.70419e-06
3.70406e-06
3.70343e-06
3.70212e-06
3.69981e-06
3.69592e-06
3.68955e-06
3.67935e-06
3.6634e-06
3.63902e-06
3.60268e-06
3.54985e-06
3.47499e-06
3.37175e-06
3.23328e-06
3.05287e-06
2.82486e-06
2.54586e-06
2.21624e-06
1.84193e-06
1.43662e-06
1.02439e-06
6.41587e-07
3.32635e-07
1.31428e-07
3.51932e-08
5.22376e-09
2.72073e-10
1.62613e-12
4.00627e-06
4.2796e-06
4.59136e-06
4.99038e-06
5.4106e-06
5.81825e-06
6.18841e-06
6.50706e-06
6.76969e-06
6.97829e-06
7.13846e-06
7.25764e-06
7.34372e-06
7.40413e-06
7.44533e-06
7.47264e-06
7.49021e-06
7.50116e-06
7.50773e-06
7.51148e-06
7.5134e-06
7.51406e-06
7.51373e-06
7.51234e-06
7.50954e-06
7.5046e-06
7.49628e-06
7.48266e-06
7.46085e-06
7.42668e-06
7.37441e-06
7.29636e-06
7.18266e-06
7.02127e-06
6.79819e-06
6.49826e-06
6.10653e-06
5.6104e-06
5.00281e-06
4.28652e-06
3.47989e-06
2.62356e-06
1.78519e-06
1.05372e-06
5.11708e-07
1.90666e-07
4.90274e-08
7.1234e-09
3.67429e-10
2.18563e-12
7.85422e-06
8.37238e-06
8.86032e-06
9.45077e-06
1.00804e-05
1.07009e-05
1.12741e-05
1.17756e-05
1.21946e-05
1.25313e-05
1.27925e-05
1.29885e-05
1.31311e-05
1.32317e-05
1.33007e-05
1.33466e-05
1.33762e-05
1.33947e-05
1.34058e-05
1.34121e-05
1.34152e-05
1.34162e-05
1.34154e-05
1.34127e-05
1.34073e-05
1.33979e-05
1.33821e-05
1.33561e-05
1.33145e-05
1.32493e-05
1.31493e-05
1.29997e-05
1.27814e-05
1.24707e-05
1.20405e-05
1.14608e-05
1.07029e-05
9.74364e-06
8.57333e-06
7.20681e-06
5.69673e-06
4.14491e-06
2.69901e-06
1.51736e-06
7.03296e-07
2.52711e-07
6.35274e-08
9.12255e-09
4.67829e-10
2.77393e-12
1.3444e-05
1.44815e-05
1.52551e-05
1.6065e-05
1.69143e-05
1.77555e-05
1.85405e-05
1.9236e-05
1.9824e-05
2.03016e-05
2.06757e-05
2.09589e-05
2.11664e-05
2.13138e-05
2.14154e-05
2.14832e-05
2.15271e-05
2.15545e-05
2.15709e-05
2.15802e-05
2.15847e-05
2.15858e-05
2.15841e-05
2.15792e-05
2.15697e-05
2.15533e-05
2.15258e-05
2.14807e-05
2.14085e-05
2.1295e-05
2.11208e-05
2.08597e-05
2.04779e-05
1.99338e-05
1.91791e-05
1.81624e-05
1.68353e-05
1.51637e-05
1.31442e-05
1.0826e-05
8.33216e-06
5.8665e-06
3.68178e-06
1.99614e-06
8.96609e-07
3.1501e-07
7.81312e-08
1.1139e-08
5.69189e-10
3.37278e-12
2.04868e-05
2.24858e-05
2.37086e-05
2.48314e-05
2.59044e-05
2.6951e-05
2.79262e-05
2.87958e-05
2.95373e-05
3.01444e-05
3.0624e-05
3.09899e-05
3.12599e-05
3.14529e-05
3.15864e-05
3.1676e-05
3.1734e-05
3.17702e-05
3.17919e-05
3.18038e-05
3.18093e-05
3.18102e-05
3.18068e-05
3.17985e-05
3.17831e-05
3.17567e-05
3.17126e-05
3.16404e-05
3.15246e-05
3.13426e-05
3.1063e-05
3.06434e-05
3.00291e-05
2.91533e-05
2.79393e-05
2.63075e-05
2.41885e-05
2.15437e-05
1.83955e-05
1.48598e-05
1.11676e-05
7.65056e-06
4.66604e-06
2.46694e-06
1.08581e-06
3.76188e-07
9.25069e-08
1.31148e-08
6.67071e-10
3.94218e-12
2.83054e-05
3.1785e-05
3.36849e-05
3.52663e-05
3.65865e-05
3.78181e-05
3.89477e-05
3.99515e-05
4.08099e-05
4.1516e-05
4.20769e-05
4.25073e-05
4.28268e-05
4.30562e-05
4.32155e-05
4.33226e-05
4.3392e-05
4.34352e-05
4.34607e-05
4.34745e-05
4.34802e-05
4.34799e-05
4.34739e-05
4.34609e-05
4.34375e-05
4.33979e-05
4.3332e-05
4.32245e-05
4.30522e-05
4.27815e-05
4.23654e-05
4.17406e-05
4.08262e-05
3.95237e-05
3.77227e-05
3.53134e-05
3.22097e-05
2.83837e-05
2.39089e-05
1.89988e-05
1.40125e-05
9.40431e-06
5.61396e-06
2.91901e-06
1.2693e-06
4.36458e-07
1.06868e-07
1.51038e-08
7.64568e-10
4.46091e-12
3.60914e-05
4.14697e-05
4.42585e-05
4.64241e-05
4.81028e-05
4.95175e-05
5.07729e-05
5.18703e-05
5.28045e-05
5.35724e-05
5.41833e-05
5.46536e-05
5.50038e-05
5.52559e-05
5.54314e-05
5.55493e-05
5.56256e-05
5.56728e-05
5.57001e-05
5.57141e-05
5.57189e-05
5.57164e-05
5.57066e-05
5.56875e-05
5.56542e-05
5.55985e-05
5.55065e-05
5.53569e-05
5.51176e-05
5.47419e-05
5.41647e-05
5.32989e-05
5.20329e-05
5.02338e-05
4.7756e-05
4.44628e-05
4.0262e-05
3.51553e-05
2.92913e-05
2.29978e-05
1.67566e-05
1.11051e-05
6.5241e-06
3.35321e-06
1.44808e-06
4.96695e-07
1.21663e-07
1.7244e-08
8.81439e-10
5.23838e-12
4.31884e-05
5.0654e-05
5.44644e-05
5.72853e-05
5.94412e-05
6.10664e-05
6.24364e-05
6.36019e-05
6.45809e-05
6.53803e-05
6.60142e-05
6.65017e-05
6.68648e-05
6.71262e-05
6.73081e-05
6.743e-05
6.75083e-05
6.75561e-05
6.75831e-05
6.75958e-05
6.75984e-05
6.75926e-05
6.7578e-05
6.75515e-05
6.75068e-05
6.74329e-05
6.7312e-05
6.71163e-05
6.68041e-05
6.6315e-05
6.55647e-05
6.44405e-05
6.28002e-05
6.04762e-05
5.72908e-05
5.30879e-05
4.77826e-05
4.14247e-05
3.42536e-05
2.67122e-05
1.93791e-05
1.2807e-05
7.44924e-06
3.80091e-06
1.63596e-06
5.61245e-07
1.37374e-07
1.93258e-08
9.73109e-10
5.65858e-12
4.92169e-05
5.87111e-05
6.35583e-05
6.70522e-05
6.96972e-05
7.16108e-05
7.31007e-05
7.43264e-05
7.53345e-05
7.61481e-05
7.67881e-05
7.72781e-05
7.76418e-05
7.7903e-05
7.8084e-05
7.82046e-05
7.82813e-05
7.83272e-05
7.83519e-05
7.83619e-05
7.83613e-05
7.83513e-05
7.83308e-05
7.8296e-05
7.82389e-05
7.8146e-05
7.79954e-05
7.7753e-05
7.73679e-05
7.67661e-05
7.58448e-05
7.44673e-05
7.24619e-05
6.96298e-05
6.57665e-05
6.07048e-05
5.438e-05
4.69053e-05
3.86233e-05
3.0086e-05
2.19244e-05
1.4553e-05
8.44063e-06
4.32705e-06
1.88613e-06
6.60455e-07
1.65533e-07
2.37027e-08
1.19822e-09
6.46021e-12
5.40623e-05
6.53474e-05
7.11454e-05
7.52708e-05
7.83545e-05
8.06027e-05
8.22264e-05
8.35129e-05
8.4546e-05
8.5368e-05
8.60076e-05
8.64936e-05
8.68522e-05
8.71083e-05
8.72846e-05
8.74011e-05
8.74741e-05
8.75165e-05
8.75378e-05
8.75443e-05
8.75396e-05
8.75247e-05
8.74978e-05
8.74541e-05
8.73842e-05
8.72723e-05
8.70929e-05
8.68064e-05
8.63534e-05
8.56479e-05
8.45705e-05
8.2963e-05
8.06284e-05
7.73408e-05
7.28741e-05
6.70551e-05
5.98451e-05
5.14325e-05
4.22872e-05
3.31173e-05
2.70535e-05
1.75671e-05
1.03951e-05
5.47996e-06
2.54526e-06
9.72666e-07
2.78939e-07
5.03737e-08
3.82e-09
2.96488e-11
5.77886e-05
7.05421e-05
7.71447e-05
8.18178e-05
8.52837e-05
8.78365e-05
8.96105e-05
9.09556e-05
9.20142e-05
9.28448e-05
9.34839e-05
9.39652e-05
9.43178e-05
9.45678e-05
9.47386e-05
9.48502e-05
9.49189e-05
9.49574e-05
9.49748e-05
9.49773e-05
9.49681e-05
9.49478e-05
9.4914e-05
9.4861e-05
9.47784e-05
9.46484e-05
9.44425e-05
9.41165e-05
9.36039e-05
9.2809e-05
9.15984e-05
8.97962e-05
8.71843e-05
8.35147e-05
7.85426e-05
7.20874e-05
6.41255e-05
5.49045e-05
4.50071e-05
3.51722e-05
2.77173e-05
1.8151e-05
1.04484e-05
5.49554e-06
2.5807e-06
1.00545e-06
2.91996e-07
5.28174e-08
3.87547e-09
2.57516e-11
6.05525e-05
7.44429e-05
8.16835e-05
8.68013e-05
9.05809e-05
9.33729e-05
9.53019e-05
9.67073e-05
9.77931e-05
9.86343e-05
9.92751e-05
9.97537e-05
0.000100102
0.000100347
0.000100513
0.00010062
0.000100685
0.00010072
0.000100733
0.000100732
0.000100718
0.000100692
0.000100651
0.000100588
0.000100493
0.000100347
0.000100117
9.97569e-05
9.91947e-05
9.83267e-05
9.70089e-05
9.50516e-05
9.22201e-05
8.82491e-05
8.28786e-05
7.59164e-05
6.73313e-05
5.7372e-05
4.66674e-05
3.59949e-05
2.77446e-05
1.77178e-05
1.00062e-05
5.25142e-06
2.48907e-06
9.69509e-07
2.80288e-07
5.07295e-08
3.71784e-09
2.38977e-11
6.25404e-05
7.72724e-05
8.49941e-05
9.04554e-05
9.44824e-05
9.74592e-05
9.95211e-05
0.000100982
0.000102093
0.000102945
0.00010359
0.000104068
0.000104413
0.000104655
0.000104818
0.000104922
0.000104984
0.000105015
0.000105025
0.00010502
0.000105001
0.000104969
0.000104921
0.000104849
0.000104743
0.00010458
0.00010433
0.000103941
0.000103339
0.000102414
0.000101014
9.89398e-05
9.59441e-05
9.17493e-05
8.60853e-05
7.87565e-05
6.97306e-05
5.92459e-05
4.79433e-05
3.6729e-05
2.82023e-05
1.76377e-05
9.92625e-06
5.23783e-06
2.49672e-06
8.16412e-07
2.28961e-07
4.03722e-08
2.71611e-09
1.09373e-11
6.39306e-05
7.92629e-05
8.7333e-05
9.30482e-05
9.72636e-05
0.000100381
0.000102552
0.000104058
0.000105188
0.000106049
0.000106698
0.000107177
0.000107522
0.000107762
0.000107923
0.000108025
0.000108084
0.000108113
0.00010812
0.000108111
0.000108087
0.00010805
0.000107994
0.000107914
0.000107796
0.000107619
0.000107351
0.000106939
0.000106305
0.000105337
0.000103877
0.000101719
9.86078e-05
9.42555e-05
8.83844e-05
8.0798e-05
7.14735e-05
6.06566e-05
4.89939e-05
3.75149e-05
2.89915e-05
1.81417e-05
1.03129e-05
5.49992e-06
2.62242e-06
8.6825e-07
2.50296e-07
4.43281e-08
3.14347e-09
1.37523e-11
6.48758e-05
8.06223e-05
8.89361e-05
9.48324e-05
9.91862e-05
0.000102406
0.000104666
0.000106209
0.000107349
0.000108216
0.000108868
0.000109349
0.000109694
0.000109935
0.000110095
0.000110195
0.000110253
0.00011028
0.000110284
0.000110271
0.000110244
0.0001102
0.000110138
0.000110049
0.00010992
0.000109731
0.000109447
0.000109016
0.000108358
0.000107358
0.000105857
0.000103643
0.000100456
9.60029e-05
9.00016e-05
8.22537e-05
7.2747e-05
6.17452e-05
4.98991e-05
3.8296e-05
2.96658e-05
1.87914e-05
1.07857e-05
5.7873e-06
2.76072e-06
9.01047e-07
2.5882e-07
4.60275e-08
3.33403e-09
1.4703e-11
6.54972e-05
8.15191e-05
8.99972e-05
9.60184e-05
0.000100471
0.000103766
0.000106095
0.000107665
0.000108811
0.00010968
0.000110334
0.000110817
0.000111163
0.000111404
0.000111564
0.000111664
0.000111721
0.000111746
0.000111748
0.000111732
0.000111701
0.000111652
0.000111583
0.000111486
0.000111348
0.000111148
0.000110851
0.000110404
0.000109728
0.000108705
0.000107176
0.000104926
0.000101692
9.71805e-05
9.11054e-05
8.32673e-05
7.36582e-05
6.25543e-05
5.06021e-05
3.88887e-05
3.01186e-05
1.9225e-05
1.10838e-05
5.97241e-06
2.85784e-06
9.35694e-07
2.75054e-07
4.99247e-08
3.67916e-09
1.51445e-11
6.58859e-05
8.20812e-05
9.06637e-05
9.67662e-05
0.000101288
0.000104635
0.000107016
0.000108607
0.000109754
0.000110624
0.00011128
0.000111763
0.000112111
0.000112353
0.000112514
0.000112614
0.00011267
0.000112694
0.000112695
0.000112677
0.000112642
0.000112589
0.000112514
0.00011241
0.000112264
0.000112054
0.000111746
0.000111287
0.000110597
0.00010956
0.000108012
0.000105739
0.00010248
9.79368e-05
9.18251e-05
8.39443e-05
7.42867e-05
6.31333e-05
5.11249e-05
3.93386e-05
3.04574e-05
1.95018e-05
1.12755e-05
6.1043e-06
2.94134e-06
9.83602e-07
2.92503e-07
5.51275e-08
3.59558e-09
3.98547e-11
6.61077e-05
8.24031e-05
9.10459e-05
9.7195e-05
0.000101759
0.000105142
0.000107559
0.000109164
0.000110311
0.00011118
0.000111837
0.000112322
0.000112672
0.000112915
0.000113077
0.000113178
0.000113234
0.000113258
0.000113257
0.000113237
0.000113199
0.000113143
0.000113064
0.000112955
0.000112802
0.000112585
0.000112269
0.000111801
0.000111102
0.000110053
0.000108494
0.00010621
0.000102936
9.83793e-05
9.22529e-05
8.43572e-05
7.46831e-05
6.35122e-05
5.14813e-05
3.96637e-05
3.07636e-05
1.97623e-05
1.14744e-05
6.24417e-06
3.04039e-06
1.0381e-06
3.18795e-07
6.26014e-08
4.32862e-09
4.90842e-11
6.62094e-05
8.25596e-05
9.12424e-05
9.74204e-05
0.00010201
0.000105416
0.000107856
0.00010947
0.000110616
0.000111484
0.000112141
0.000112627
0.000112978
0.000113222
0.000113385
0.000113486
0.000113543
0.000113566
0.000113565
0.000113544
0.000113504
0.000113446
0.000113364
0.000113251
0.000113095
0.000112872
0.000112551
0.000112078
0.000111372
0.000110318
0.000108753
0.000106462
0.000103184
9.8622e-05
9.24927e-05
8.45962e-05
7.4923e-05
6.37553e-05
5.17294e-05
3.99182e-05
3.10001e-05
2.0026e-05
1.1687e-05
6.39209e-06
3.13552e-06
1.08244e-06
3.50709e-07
7.65355e-08
1.06714e-08
2.58384e-10
6.62098e-05
8.25738e-05
9.12739e-05
9.74664e-05
0.000102069
0.000105486
0.000107938
0.000109556
0.000110701
0.000111571
0.000112229
0.000112717
0.000113068
0.000113314
0.000113477
0.000113579
0.000113635
0.000113659
0.000113657
0.000113636
0.000113596
0.000113536
0.000113454
0.000113339
0.000113181
0.000112957
0.000112634
0.000112159
0.000111451
0.000110395
0.000108828
0.000106536
0.000103256
9.86927e-05
9.2563e-05
8.46673e-05
7.4996e-05
6.3832e-05
5.18123e-05
4.00031e-05
3.10502e-05
2.01777e-05
1.18136e-05
6.479e-06
3.18954e-06
1.11617e-06
3.70585e-07
8.89979e-08
1.6236e-08
1.35151e-09
6.61713e-05
8.25184e-05
9.12127e-05
9.74033e-05
0.000102004
0.000105419
0.000107863
0.000109477
0.000110625
0.000111498
0.000112157
0.000112645
0.000112998
0.000113243
0.000113406
0.000113508
0.000113565
0.000113588
0.000113587
0.000113566
0.000113526
0.000113468
0.000113386
0.000113273
0.000113116
0.000112894
0.000112572
0.000112099
0.000111394
0.00011034
0.000108776
0.000106486
0.000103209
9.86474e-05
9.25181e-05
8.4621e-05
7.49461e-05
6.37766e-05
5.17516e-05
3.99301e-05
3.09015e-05
2.01279e-05
1.17684e-05
6.44663e-06
3.16505e-06
1.09464e-06
3.55611e-07
8.0173e-08
1.14072e-08
3.53481e-10
6.60491e-05
8.23395e-05
9.09962e-05
9.71613e-05
0.000101741
0.000105139
0.00010756
0.000109167
0.000110319
0.000111196
0.000111857
0.000112347
0.0001127
0.000112945
0.000113109
0.000113211
0.000113268
0.000113292
0.000113292
0.000113272
0.000113234
0.000113177
0.000113098
0.000112988
0.000112835
0.000112618
0.000112302
0.000111835
0.000111136
0.00011009
0.000108532
0.000106249
0.000102977
9.84207e-05
9.22943e-05
8.43976e-05
7.47197e-05
6.35428e-05
5.15076e-05
3.96716e-05
3.05976e-05
1.98941e-05
1.15814e-05
6.31309e-06
3.07367e-06
1.03898e-06
3.22566e-07
6.47127e-08
6.9273e-09
5.20135e-11
6.58331e-05
8.20193e-05
9.06082e-05
9.67211e-05
0.000101258
0.00010462
0.000107003
0.000108598
0.000109752
0.000110631
0.000111294
0.000111784
0.000112137
0.000112383
0.000112547
0.00011265
0.000112707
0.000112733
0.000112734
0.000112716
0.000112681
0.000112627
0.000112552
0.000112448
0.000112302
0.000112092
0.000111785
0.000111327
0.000110639
0.000109603
0.000108058
0.000105788
0.00010253
9.79868e-05
9.18742e-05
8.39909e-05
7.43257e-05
6.31606e-05
5.11393e-05
3.93311e-05
3.02818e-05
1.96144e-05
1.136e-05
6.15666e-06
2.96638e-06
9.80542e-07
2.95474e-07
5.58941e-08
5.62893e-09
4.08131e-11
6.54232e-05
8.14312e-05
8.99128e-05
9.59447e-05
0.000100417
0.000103726
0.000106057
0.000107634
0.00010879
0.000109671
0.000110336
0.000110827
0.00011118
0.000111427
0.000111592
0.000111695
0.000111754
0.000111781
0.000111785
0.000111769
0.000111738
0.000111689
0.00011162
0.000111523
0.000111385
0.000111184
0.000110888
0.000110443
0.00010977
0.00010875
0.000107223
0.000104975
0.000101742
9.72282e-05
9.11499e-05
8.33064e-05
7.36867e-05
6.25725e-05
5.06077e-05
3.88728e-05
2.98883e-05
1.93535e-05
1.11767e-05
6.02598e-06
2.87643e-06
9.31393e-07
2.76256e-07
5.04364e-08
3.82572e-09
1.62359e-11
6.47922e-05
8.05182e-05
8.88313e-05
9.47386e-05
9.91137e-05
0.000102347
0.000104608
0.00010616
0.000107314
0.000108194
0.000108859
0.00010935
0.000109705
0.000109953
0.000110119
0.000110225
0.000110286
0.000110315
0.000110321
0.00011031
0.000110282
0.000110239
0.000110176
0.000110087
0.000109959
0.000109771
0.000109488
0.000109059
0.000108405
0.000107408
0.000105909
0.000103696
0.000100507
9.60495e-05
9.00401e-05
8.22799e-05
7.2758e-05
6.17546e-05
4.99098e-05
3.83082e-05
2.93997e-05
1.90465e-05
1.09678e-05
5.8909e-06
2.79584e-06
8.92749e-07
2.59401e-07
4.58814e-08
3.24612e-09
1.48973e-11
6.38463e-05
7.91544e-05
8.72196e-05
9.29456e-05
9.71814e-05
0.000100309
0.00010248
0.000103998
0.000105143
0.000106019
0.000106681
0.000107173
0.000107529
0.000107779
0.000107948
0.000108056
0.00010812
0.000108152
0.000108161
0.000108154
0.000108131
0.000108094
0.000108039
0.000107958
0.000107841
0.000107666
0.0001074
0.000106991
0.000106361
0.000105397
0.000103939
0.000101781
9.86643e-05
9.43013e-05
8.84128e-05
8.08016e-05
7.14545e-05
6.06423e-05
4.89824e-05
3.75216e-05
2.85508e-05
1.85002e-05
1.05902e-05
5.66432e-06
2.68733e-06
8.65693e-07
2.49937e-07
4.45616e-08
3.06305e-09
1.36109e-11
6.24709e-05
7.71786e-05
8.48914e-05
9.03624e-05
9.44055e-05
9.73867e-05
9.94482e-05
0.000100919
0.000102047
0.000102914
0.000103573
0.000104064
0.000104422
0.000104675
0.000104847
0.000104958
0.000105025
0.000105061
0.000105074
0.000105071
0.000105054
0.000105023
0.000104975
0.000104904
0.000104799
0.000104639
0.000104392
0.000104007
0.000103409
0.000102488
0.00010109
9.90128e-05
9.60069e-05
9.17919e-05
8.60959e-05
7.87257e-05
6.96664e-05
5.91771e-05
4.78439e-05
3.66449e-05
2.78608e-05
1.78263e-05
1.00672e-05
5.3378e-06
2.53997e-06
8.2128e-07
2.30348e-07
4.09733e-08
2.77684e-09
1.09055e-11
6.05196e-05
7.43907e-05
8.1619e-05
8.67437e-05
9.05303e-05
9.33169e-05
9.52426e-05
9.66558e-05
9.77559e-05
9.86102e-05
9.92649e-05
9.9757e-05
0.000100118
0.000100374
0.00010055
0.000100665
0.000100736
0.000100776
0.000100794
0.000100795
0.000100783
0.000100758
0.000100719
0.000100658
0.000100565
0.000100421
0.000100195
9.98402e-05
9.92832e-05
9.84194e-05
9.71025e-05
9.51399e-05
9.22931e-05
8.82937e-05
8.28807e-05
7.58669e-05
6.72365e-05
5.72379e-05
4.64342e-05
3.57527e-05
2.74722e-05
1.74412e-05
9.78454e-06
5.13091e-06
2.43408e-06
9.41006e-07
2.68336e-07
4.9057e-08
3.6428e-09
2.39884e-11
5.78178e-05
7.05632e-05
7.71503e-05
8.18234e-05
8.52826e-05
8.78171e-05
8.95823e-05
9.09305e-05
9.19983e-05
9.28381e-05
9.34886e-05
9.39817e-05
9.43459e-05
9.46069e-05
9.47877e-05
9.49078e-05
9.49836e-05
9.50278e-05
9.50496e-05
9.50554e-05
9.50486e-05
9.50301e-05
9.49981e-05
9.49473e-05
9.48674e-05
9.47412e-05
9.45401e-05
9.42198e-05
9.37132e-05
9.29227e-05
9.17125e-05
8.99031e-05
8.7272e-05
8.35675e-05
7.85433e-05
7.2021e-05
6.39845e-05
5.46777e-05
4.46701e-05
3.49267e-05
2.76103e-05
1.785e-05
1.00906e-05
5.29051e-06
2.49319e-06
9.74314e-07
2.8255e-07
5.04859e-08
3.64914e-09
2.32565e-11
5.41793e-05
6.54733e-05
7.12522e-05
7.53653e-05
7.84241e-05
8.06404e-05
8.22471e-05
8.3529e-05
8.45627e-05
8.53878e-05
8.60342e-05
8.65287e-05
8.68969e-05
8.71627e-05
8.73484e-05
8.74733e-05
8.75535e-05
8.76018e-05
8.76278e-05
8.76379e-05
8.7636e-05
8.76234e-05
8.75988e-05
8.75577e-05
8.74911e-05
8.73836e-05
8.72098e-05
8.69297e-05
8.64832e-05
8.57825e-05
8.47053e-05
8.30895e-05
8.07335e-05
7.74074e-05
7.28829e-05
6.69893e-05
5.97e-05
5.12313e-05
4.21282e-05
3.33527e-05
2.60967e-05
1.81296e-05
1.05616e-05
5.54847e-06
2.59627e-06
1.00402e-06
2.89653e-07
5.21865e-08
3.82449e-09
2.58496e-11
4.94413e-05
5.89638e-05
6.37866e-05
6.72502e-05
6.98506e-05
7.17189e-05
7.31816e-05
7.43928e-05
7.53909e-05
7.61998e-05
7.68404e-05
7.73344e-05
7.77045e-05
7.79734e-05
7.81624e-05
7.82906e-05
7.83742e-05
7.84258e-05
7.84552e-05
7.8469e-05
7.84713e-05
7.84639e-05
7.84461e-05
7.84142e-05
7.83608e-05
7.82727e-05
7.81281e-05
7.78927e-05
7.75144e-05
7.69177e-05
7.59967e-05
7.46107e-05
7.25839e-05
6.97135e-05
6.57939e-05
6.06624e-05
5.42711e-05
4.67762e-05
3.86396e-05
3.07438e-05
2.26854e-05
1.47974e-05
8.61558e-06
4.40621e-06
1.93444e-06
6.8041e-07
1.69809e-07
2.43635e-08
1.23071e-09
6.65536e-12
4.35259e-05
5.10357e-05
5.4815e-05
5.75848e-05
5.96795e-05
6.12477e-05
6.25791e-05
6.37186e-05
6.46769e-05
6.54635e-05
6.60913e-05
6.65778e-05
6.69435e-05
6.72099e-05
6.73979e-05
6.75261e-05
6.76105e-05
6.76636e-05
6.76949e-05
6.77113e-05
6.77169e-05
6.77138e-05
6.77018e-05
6.76784e-05
6.76376e-05
6.75687e-05
6.74539e-05
6.72651e-05
6.69598e-05
6.64758e-05
6.57259e-05
6.45941e-05
6.29339e-05
6.05743e-05
5.73377e-05
5.30717e-05
4.76999e-05
4.12732e-05
3.40589e-05
2.68489e-05
1.98317e-05
1.31484e-05
7.7259e-06
3.96943e-06
1.72229e-06
5.92542e-07
1.45255e-07
2.05254e-08
1.03448e-09
6.04675e-12
3.6527e-05
4.19543e-05
4.4705e-05
4.67999e-05
4.84066e-05
4.97583e-05
5.09665e-05
5.20271e-05
5.2932e-05
5.36802e-05
5.42792e-05
5.47437e-05
5.50928e-05
5.5347e-05
5.55265e-05
5.56492e-05
5.57303e-05
5.5782e-05
5.58132e-05
5.58305e-05
5.58381e-05
5.58382e-05
5.5831e-05
5.58148e-05
5.57853e-05
5.57342e-05
5.5648e-05
5.5505e-05
5.52721e-05
5.49012e-05
5.43248e-05
5.34523e-05
5.2169e-05
5.03392e-05
4.78185e-05
4.44793e-05
4.02472e-05
3.51219e-05
2.91853e-05
2.29457e-05
1.6837e-05
1.12254e-05
6.66047e-06
3.44088e-06
1.49437e-06
5.13697e-07
1.25681e-07
1.77348e-08
8.96107e-10
5.25549e-12
2.87972e-05
3.23164e-05
3.41753e-05
3.56767e-05
3.69209e-05
3.80888e-05
3.91677e-05
4.01289e-05
4.09536e-05
4.16358e-05
4.21809e-05
4.26023e-05
4.29178e-05
4.31468e-05
4.33081e-05
4.34183e-05
4.34913e-05
4.35381e-05
4.35668e-05
4.35832e-05
4.35914e-05
4.35933e-05
4.35896e-05
4.35792e-05
4.35592e-05
4.35237e-05
4.34629e-05
4.33611e-05
4.31944e-05
4.29279e-05
4.25126e-05
4.18826e-05
4.09537e-05
3.96246e-05
3.7784e-05
3.53269e-05
3.21872e-05
2.836e-05
2.38636e-05
1.89541e-05
1.40096e-05
9.43391e-06
5.65859e-06
2.94671e-06
1.28514e-06
4.4266e-07
1.08403e-07
1.5302e-08
7.73395e-10
4.53604e-12
2.0975e-05
2.29932e-05
2.41777e-05
2.52244e-05
2.62295e-05
2.72175e-05
2.81434e-05
2.89708e-05
2.96789e-05
3.02617e-05
3.07245e-05
3.10798e-05
3.13442e-05
3.15351e-05
3.16691e-05
3.17603e-05
3.18207e-05
3.18595e-05
3.18835e-05
3.18976e-05
3.1905e-05
3.19076e-05
3.19061e-05
3.19e-05
3.18874e-05
3.18643e-05
3.18242e-05
3.17566e-05
3.16453e-05
3.14668e-05
3.11879e-05
3.07644e-05
3.01393e-05
2.9244e-05
2.8e-05
2.63275e-05
2.41657e-05
2.15012e-05
1.83396e-05
1.47993e-05
1.11216e-05
7.62481e-06
4.65523e-06
2.45999e-06
1.08356e-06
3.75312e-07
9.21439e-08
1.30163e-08
6.57765e-10
3.85662e-12
1.38659e-05
1.49024e-05
1.56478e-05
1.63958e-05
1.71926e-05
1.79865e-05
1.87293e-05
1.93886e-05
1.99478e-05
2.04037e-05
2.07624e-05
2.10354e-05
2.12371e-05
2.13818e-05
2.14827e-05
2.15512e-05
2.15965e-05
2.16256e-05
2.16436e-05
2.16544e-05
2.16603e-05
2.16627e-05
2.16624e-05
2.16591e-05
2.16517e-05
2.16378e-05
2.16133e-05
2.15716e-05
2.15026e-05
2.13916e-05
2.12179e-05
2.09538e-05
2.05639e-05
2.00055e-05
1.92297e-05
1.81842e-05
1.68221e-05
1.51232e-05
1.30847e-05
1.07561e-05
8.26458e-06
5.81069e-06
3.64124e-06
1.96975e-06
8.83145e-07
3.09278e-07
7.63403e-08
1.0803e-08
5.45888e-10
3.19872e-12
8.16667e-06
8.67379e-06
9.1483e-06
9.69711e-06
1.02907e-05
1.08772e-05
1.1419e-05
1.18934e-05
1.22905e-05
1.26104e-05
1.28593e-05
1.3047e-05
1.31846e-05
1.32826e-05
1.33506e-05
1.33965e-05
1.34268e-05
1.34463e-05
1.34584e-05
1.34656e-05
1.34697e-05
1.34716e-05
1.34718e-05
1.34701e-05
1.34661e-05
1.34584e-05
1.34446e-05
1.34209e-05
1.33815e-05
1.33178e-05
1.32181e-05
1.30664e-05
1.28424e-05
1.25216e-05
1.20766e-05
1.14773e-05
1.0695e-05
9.71193e-06
8.52209e-06
7.14232e-06
5.62803e-06
4.08145e-06
2.6481e-06
1.48256e-06
6.8409e-07
2.44307e-07
6.09324e-08
8.65612e-09
4.37617e-10
2.56224e-12
4.20204e-06
4.46482e-06
4.77557e-06
5.1515e-06
5.55029e-06
5.93639e-06
6.28626e-06
6.58725e-06
6.83535e-06
7.03252e-06
7.18423e-06
7.29757e-06
7.37997e-06
7.43833e-06
7.47863e-06
7.50577e-06
7.52362e-06
7.53506e-06
7.54219e-06
7.54649e-06
7.54894e-06
7.55015e-06
7.55038e-06
7.54966e-06
7.54768e-06
7.54376e-06
7.53666e-06
7.52439e-06
7.50388e-06
7.47067e-06
7.41852e-06
7.3391e-06
7.22181e-06
7.05393e-06
6.82126e-06
6.50871e-06
6.10127e-06
5.58845e-06
4.96552e-06
4.23731e-06
3.42437e-06
2.56882e-06
1.7383e-06
1.01971e-06
4.91739e-07
1.81623e-07
4.61916e-08
6.6139e-09
3.34903e-10
1.95958e-12
1.84013e-06
1.98888e-06
2.18278e-06
2.40995e-06
2.64303e-06
2.86252e-06
3.05676e-06
3.22056e-06
3.3534e-06
3.45759e-06
3.53693e-06
3.59572e-06
3.63818e-06
3.66809e-06
3.68867e-06
3.70249e-06
3.71156e-06
3.71737e-06
3.721e-06
3.72319e-06
3.72445e-06
3.7251e-06
3.72527e-06
3.72499e-06
3.72412e-06
3.72235e-06
3.7191e-06
3.71343e-06
3.70391e-06
3.68845e-06
3.66411e-06
3.627e-06
3.57216e-06
3.49368e-06
3.38498e-06
3.23925e-06
3.04984e-06
2.81185e-06
2.52306e-06
2.18515e-06
1.80544e-06
1.39887e-06
9.90142e-07
6.15075e-07
3.15945e-07
1.23435e-07
3.25792e-08
4.74102e-09
2.40919e-10
1.40941e-12
6.58566e-07
7.40433e-07
8.45817e-07
9.61201e-07
1.0746e-06
1.17792e-06
1.267e-06
1.34063e-06
1.39943e-06
1.44503e-06
1.47946e-06
1.5048e-06
1.52302e-06
1.53581e-06
1.54458e-06
1.55046e-06
1.55431e-06
1.55678e-06
1.55832e-06
1.55925e-06
1.5598e-06
1.56008e-06
1.56017e-06
1.56008e-06
1.55975e-06
1.55906e-06
1.55779e-06
1.55554e-06
1.55175e-06
1.54555e-06
1.53578e-06
1.52085e-06
1.49877e-06
1.46716e-06
1.42337e-06
1.36471e-06
1.28866e-06
1.19335e-06
1.07805e-06
9.4357e-07
7.927e-07
6.30562e-07
4.6494e-07
3.06796e-07
1.70749e-07
7.28302e-08
2.06304e-08
3.11208e-09
1.59415e-10
9.31857e-13
1.8062e-07
2.19066e-07
2.63456e-07
3.09189e-07
3.52104e-07
3.89856e-07
4.21587e-07
4.47349e-07
4.67675e-07
4.83303e-07
4.95032e-07
5.03631e-07
5.09792e-07
5.14106e-07
5.17061e-07
5.1904e-07
5.20335e-07
5.21164e-07
5.21682e-07
5.21997e-07
5.22181e-07
5.22281e-07
5.22315e-07
5.2229e-07
5.22191e-07
5.21977e-07
5.21573e-07
5.20856e-07
5.19636e-07
5.17634e-07
5.14461e-07
5.09604e-07
5.02409e-07
4.92095e-07
4.77796e-07
4.58645e-07
4.33839e-07
4.02809e-07
3.65369e-07
3.21859e-07
2.73264e-07
2.21254e-07
1.68141e-07
1.16795e-07
7.06465e-08
3.39088e-08
1.09056e-08
1.79109e-09
9.40588e-11
5.48494e-13
3.40192e-08
4.66941e-08
5.97422e-08
7.23427e-08
8.3608e-08
9.31963e-08
1.01089e-07
1.07417e-07
1.12371e-07
1.16161e-07
1.18997e-07
1.21071e-07
1.22554e-07
1.23592e-07
1.24302e-07
1.24777e-07
1.25088e-07
1.25287e-07
1.25412e-07
1.25487e-07
1.25532e-07
1.25556e-07
1.25566e-07
1.25561e-07
1.2554e-07
1.25491e-07
1.25399e-07
1.25234e-07
1.2495e-07
1.24482e-07
1.23737e-07
1.22592e-07
1.20892e-07
1.18451e-07
1.15062e-07
1.1052e-07
1.04637e-07
9.72839e-08
8.84237e-08
7.81508e-08
6.67161e-08
5.45345e-08
4.21651e-08
3.02637e-08
1.95096e-08
1.05511e-08
4.09027e-09
8.1333e-10
4.67058e-11
2.7427e-13
3.62281e-09
5.91229e-09
8.05446e-09
9.98371e-09
1.16341e-08
1.30055e-08
1.41207e-08
1.50092e-08
1.57023e-08
1.62316e-08
1.6627e-08
1.6916e-08
1.71226e-08
1.7267e-08
1.73658e-08
1.74319e-08
1.74751e-08
1.75028e-08
1.75202e-08
1.75308e-08
1.7537e-08
1.75405e-08
1.75419e-08
1.75415e-08
1.75388e-08
1.75325e-08
1.75203e-08
1.74981e-08
1.74597e-08
1.73958e-08
1.72934e-08
1.71355e-08
1.69003e-08
1.65619e-08
1.60913e-08
1.54598e-08
1.46416e-08
1.36189e-08
1.23874e-08
1.09613e-08
9.3768e-09
7.69341e-09
5.99048e-09
4.36068e-09
2.90016e-09
1.69137e-09
7.83415e-10
2.1515e-10
1.65179e-11