/*--------------------------------*- C++ -*----------------------------------*\
| =========                 |                                                 |
| \\      /  F ield         | foam-extend: Open Source CFD                    |
|  \\    /   O peration     | Version:     4.0                                |
|   \\  /    A nd           | Web:         http://www.foam-extend.org         |
|    \\/     M anipulation  |                                                 |
\*---------------------------------------------------------------------------*/
FoamFile
{
    version     2.0;
    format      ascii;
    class       volScalarField;
    location    "0.0003";
    object      omega;
}
// * * * * * * * * * * * * * * * * * * * * * * * * * * * * * * * * * * * * * //

dimensions      [0 0 -1 0 0 0 0];

internalField   nonuniform List<scalar> 
28770
(
1.87595e+07
1.87595e+07
1.87595e+07
1.87595e+07
1.87595e+07
1.87595e+07
1.87595e+07
1.87595e+07
1.87595e+07
1.87595e+07
1.87595e+07
1.87595e+07
1.87595e+07
1.87595e+07
1.87595e+07
1.87595e+07
1.87595e+07
1.87595e+07
1.87595e+07
1.87595e+07
1.87595e+07
1.87595e+07
1.87595e+07
1.87595e+07
1.87595e+07
1.87595e+07
1.87595e+07
1.87595e+07
1.87595e+07
1.87595e+07
1.87595e+07
1.87595e+07
1.87595e+07
1.87595e+07
1.87595e+07
1.87595e+07
1.87595e+07
1.87595e+07
1.87595e+07
1.87595e+07
1.87595e+07
1.87595e+07
1.87595e+07
1.87595e+07
1.87595e+07
1.87595e+07
1.87595e+07
1.87595e+07
1.87595e+07
1.87595e+07
2.70016e+06
3.18574e+06
3.23008e+06
3.23475e+06
3.23538e+06
3.23549e+06
3.23552e+06
3.23553e+06
3.23554e+06
3.23554e+06
3.23554e+06
3.23554e+06
3.23554e+06
3.23554e+06
3.23554e+06
3.23554e+06
3.23554e+06
3.23554e+06
3.23554e+06
3.23554e+06
3.23554e+06
3.23554e+06
3.23554e+06
3.23554e+06
3.23554e+06
3.23554e+06
3.23554e+06
3.23554e+06
3.23554e+06
3.23554e+06
3.23555e+06
3.23555e+06
3.23555e+06
3.23555e+06
3.23555e+06
3.23555e+06
3.23555e+06
3.23556e+06
3.23556e+06
3.23557e+06
3.23558e+06
3.23561e+06
3.23567e+06
3.23585e+06
3.23643e+06
3.23891e+06
3.25305e+06
3.36211e+06
4.43127e+06
1.79872e+07
679450
1.01714e+06
1.08474e+06
1.09848e+06
1.10156e+06
1.10235e+06
1.10259e+06
1.10267e+06
1.1027e+06
1.10271e+06
1.10272e+06
1.10272e+06
1.10273e+06
1.10273e+06
1.10273e+06
1.10273e+06
1.10273e+06
1.10273e+06
1.10273e+06
1.10273e+06
1.10273e+06
1.10273e+06
1.10273e+06
1.10273e+06
1.10273e+06
1.10273e+06
1.10273e+06
1.10273e+06
1.10273e+06
1.10273e+06
1.10273e+06
1.10273e+06
1.10273e+06
1.10274e+06
1.10274e+06
1.10275e+06
1.10276e+06
1.10277e+06
1.1028e+06
1.10286e+06
1.10297e+06
1.10321e+06
1.10378e+06
1.1053e+06
1.1099e+06
1.12603e+06
1.19191e+06
1.50335e+06
3.24976e+06
1.79872e+07
228657
431036
496296
516099
522249
524283
525013
525298
525419
525475
525502
525516
525523
525527
525529
525531
525531
525532
525532
525533
525533
525533
525533
525533
525534
525534
525534
525535
525536
525537
525540
525543
525549
525558
525572
525597
525637
525707
525831
526062
526514
527454
529556
534657
548174
587434
712735
1.16002e+06
3.1232e+06
1.79872e+07
96209.1
214150
266590
287605
295856
299161
300540
301146
301427
301564
301633
301670
301690
301702
301708
301712
301714
301715
301716
301717
301717
301717
301718
301718
301718
301719
301720
301721
301723
301727
301732
301742
301757
301781
301822
301888
302000
302190
302524
303128
304267
306523
311234
321665
346210
407822
574733
1.08478e+06
3.10623e+06
1.79872e+07
48112.1
118765
157952
177183
186196
190393
192378
193342
193827
194079
194213
194287
194329
194353
194367
194375
194379
194382
194384
194385
194385
194386
194386
194387
194388
194389
194390
194393
194397
194405
194417
194437
194469
194522
194608
194750
194984
195378
196053
197239
199390
203433
211343
227493
262031
340009
530312
1.06585e+06
3.1032e+06
1.79872e+07
27445.2
71660.3
100384
116740
125525
130140
132561
133845
134538
134920
135134
135257
135328
135369
135394
135408
135416
135421
135424
135426
135427
135428
135429
135430
135431
135433
135436
135440
135448
135461
135483
135519
135577
135672
135826
136077
136487
137162
138293
140218
143576
149591
160694
181898
224033
312398
514673
1.06036e+06
3.10249e+06
1.79872e+07
17389.3
46592
67589.6
80995.6
89016.4
93663.1
96321.3
97841.2
98715.6
99223.6
99521.6
99698
99803
99865.9
99903.6
99926.1
99939.6
99947.6
99952.4
99955.3
99957.1
99958.4
99959.5
99960.8
99962.5
99965.3
99969.8
99977.4
99990
100011
100046
100103
100195
100345
100586
100975
101600
102613
104266
107002
111605
119506
133401
158563
205926
300434
508666
1.05852e+06
3.10227e+06
1.79872e+07
12033
32346
47908.6
58766.6
65838.5
70274.7
73002.3
74664.6
75675.5
76291
76666.7
76896.5
77037.2
77123.2
77175.6
77207.5
77226.7
77238.3
77245.2
77249.5
77252.1
77254
77255.6
77257.4
77259.9
77263.9
77270.5
77281.5
77299.9
77330.5
77380.8
77463
77596
77809.9
78151.4
78694.5
79557
80928.6
83120.1
86650.8
92407.4
101943
118069
146107
196875
294918
506144
1.05782e+06
3.10219e+06
1.79872e+07
9001.44
23871.3
35669.8
44479.7
50624.5
54732.5
57413.3
59137.4
60236.9
60934.5
61375.4
61653.1
61827.3
61936
62003.4
62044.9
62070.3
62085.7
62095.1
62100.8
62104.4
62106.9
62109
62111.5
62114.9
62120.4
62129.3
62144.2
62169.1
62210.3
62277.9
62387.7
62564.4
62846.3
63292.6
63994.6
65094.4
66815
69511
73756.2
80498.9
91349.8
109148
139178
192101
292177
504964
1.05751e+06
3.10216e+06
1.79872e+07
7217.27
18671.3
27934.9
35125.2
40443.5
44189.4
46756.8
48483.7
49630.1
50383.3
50874.1
51191.3
51394.7
51524
51605.4
51656.2
51687.6
51706.8
51718.6
51725.8
51730.4
51733.6
51736.4
51739.6
51744
51751
51762.5
51781.6
51813.2
51865.4
51950.6
52088.3
52308.5
52657.4
53204.7
54056.9
55375.8
57409.7
60543.9
65385.6
72914.3
84758.3
103745
135098
189356
290612
504269
1.05731e+06
3.10213e+06
1.79872e+07
6140.32
15410.7
22958.8
28930.6
33556.8
36961.2
39387.9
41081.1
42242.9
43029.2
43554.8
43902.2
44129.1
44275.8
44369.4
44428.5
44465.4
44488.2
44502.3
44511
44516.6
44520.5
44524
44527.9
44533.4
44542.1
44556.1
44579.3
44617.6
44680.5
44782.5
44946.5
45207.3
45617.3
46255.4
47239.7
48746.7
51042.2
54530.4
59836.2
67949
80491.2
100263
132429
187455
289363
503531
1.05696e+06
3.10205e+06
1.79872e+07
5480.24
13337.8
19732.2
24835.3
28882.2
31988.3
34272.4
35913.7
37070.6
37872.6
38420.3
38789.1
39033.9
39194.3
39297.9
39364.1
39405.7
39431.7
39447.8
39457.9
39464.4
39469.2
39473.3
39478.1
39484.6
39494.9
39511.4
39538.5
39583.1
39655.6
39772.9
39960.3
40256.4
40718.8
41433.2
42526
44183.3
46681.6
50434.5
56072.8
64582.1
77559.1
97765.8
130312
185602
287643
501915
1.05568e+06
3.1015e+06
1.79872e+07
5071.88
12006
17619.8
22125.1
25718.6
28569.6
30725
32309.4
33450.2
34256.5
34816.6
35199.5
35457.1
35627.8
35739.3
35811.1
35856.7
35885.3
35903.2
35914.5
35922
35927.4
35932.2
35937.8
35945.4
35957.2
35976.1
36006.8
36056.8
36137.9
36268.1
36475.1
36800.2
37304.8
38079.1
39254.7
41023.2
43665.1
47596.3
53445.3
62188.6
75362.4
95678
128149
183041
284214
497129
1.04963e+06
3.09629e+06
1.79872e+07
4818.16
11144.8
16232.8
20328.6
23595.7
26226.8
28274.5
29805.6
30926
31729.8
32295.7
32687.3
32953.6
33131.7
33249.1
33325.2
33373.9
33404.7
33424.1
33436.4
33444.7
33450.8
33456.3
33462.7
33471.4
33484.6
33505.6
33539.5
33594.3
33682.4
33823.2
34045.6
34393.1
34929.4
35747.5
36981.3
38824
41555.2
45584.7
51531.6
60395.9
73546.5
93657.8
125537
179024
277044
482968
1.02053e+06
3.04092e+06
1.79872e+07
4660.38
10585.9
15319.7
19132.5
22178.7
24635.6
26592
28077.1
29177.2
29975.3
30543.1
30939.6
31211.5
31394.7
31516.3
31595.6
31646.7
31679.2
31699.8
31713.1
31722
31728.8
31735
31742.2
31751.9
31766.5
31789.5
31826.1
31884.8
31978.5
32127.4
32361.3
32725
33283.4
34130.7
35401.3
37287.2
40062.4
44119.4
50021.8
56238.5
68630.7
86427.9
114154
159486
239392
397252
770896
2.00893e+06
1.20424e+07
4562.38
10222.9
14718.9
18338.1
21234.6
23562.5
25441.7
26892.1
27974.9
28766.6
29334.1
29733.1
30008.4
30195.1
30319.6
30401.2
30454
30487.8
30509.4
30523.5
30533.1
30540.5
30547.4
30555.4
30566.2
30582.1
30606.8
30645.7
30707.6
30805.6
30960.4
31202.4
31576.7
32149
33013.5
34304
36210.3
39001.7
43063.3
48957.3
55152.5
67271.4
84710.9
111678
155443
232085
383271
747060
2.01435e+06
1.24057e+07
4501.59
9987.38
14324.3
17812.3
20606.7
22846.4
24663.8
26086.4
27155
27940.8
28507.1
28907.2
29184.6
29373.5
29499.9
29583.2
29637.3
29672.1
29694.5
29709.2
29719.4
29727.4
29735
29743.9
29755.7
29772.9
29799.2
29840.1
29904.4
30005.7
30164.5
30411.5
30792.2
31371.9
32244.2
33541.8
35451.8
38238.5
42279.4
48123.2
54279.1
66123.7
83216
109521
152054
226537
373664
730699
1.98891e+06
1.23852e+07
4463.86
9834.78
14065.9
17465.4
20189.9
22369.6
24141.5
25542.4
26600.1
27381.1
27946
28346.6
28625.2
28815.5
28943.2
29027.6
29082.6
29118.2
29141.2
29156.4
29167.2
29175.8
29184.2
29193.9
29206.7
29225.2
29252.9
29295.5
29361.8
29465.4
29626.8
29876.7
30260.3
30842.5
31715.9
33011.6
34913.6
37681.7
41685.7
47462
53562
65151.5
81918.1
107626
148942
233773
388356
766466
2.12102e+06
1.69429e+07
4440.3
9736.04
13897.3
17237.5
19914.4
22054
23791.7
25175.9
26226.7
27004.3
27568.2
27968.9
28248.2
28439.4
28568
28653.2
28708.8
28744.9
28768.4
28784.1
28795.4
28804.7
28813.8
28824.3
28838.2
28857.9
28887
28931.1
28999
29104.2
29267.1
29518.3
29902.3
30483.7
31353.8
32641.6
34528.5
37269.5
41227.5
46927.9
52960.2
64316.1
80784.2
105987
146426
229337
379646
745934
2.07431e+06
1.69163e+07
4425.41
9672.2
13787.5
17088.5
19733.6
21846.7
23557.7
24929.1
25976.2
26752
27315.3
27716.1
27995.9
28187.7
28316.9
28402.6
28458.7
28495.2
28519.1
28535.2
28547
28556.9
28566.7
28578.1
28593
28613.8
28644.1
28689.6
28758.8
28865.1
29028.8
29280.2
29663.2
30241.7
31105.7
32382.5
34250.3
36959.8
40867.1
46487.2
52443.2
63580.5
79766.1
104523
144250
225808
374109
737915
2.06707e+06
1.69157e+07
4415.78
9630.94
13716.4
16991.7
19615.9
21711.4
23401.9
24763.5
25809
26584.2
27147.3
27548.3
27828.4
28020.6
28150.2
28236.2
28292.7
28329.5
28353.7
28370.3
28382.5
28392.9
28403.4
28415.6
28431.4
28453.3
28484.8
28531.4
28601.6
28708.8
28872.9
29123.7
29505.1
30079.6
30936.5
32201
34048.5
36725.4
40581.1
46119.5
51995
62915.1
78807.3
103093
142052
221975
367446
724027
2.02475e+06
1.67948e+07
4409.38
9604.43
13670.8
16929.6
19540.2
21624.3
23299.3
24653.7
25698.9
26474
27037.3
27438.5
27719
27911.4
28041.3
28127.6
28184.2
28221.3
28245.8
28262.6
28275.2
28286.1
28297.2
28310.1
28326.8
28349.6
28382
28429.6
28500.7
28608.5
28772.6
29022.8
29402.2
29972.8
30822.7
32075.5
33903.9
36550.3
40357.3
45817.7
51616.3
62310.4
77880.2
101601
139530
216861
357127
696990
2.07583e+06
1.19266e+07
4405.1
9587.88
13642.7
16891.3
19493.5
21570.2
23234.3
24583.6
25629
26404.5
26968.1
27369.6
27650.3
27843
27973
28059.4
28116.2
28153.5
28178.2
28195.2
28208.1
28219.4
28230.9
28244.4
28261.7
28285.3
28318.5
28366.9
28438.6
28546.8
28710.9
28960.4
29338.1
29905.4
30749.5
31992.6
33805.4
36426.6
40192.9
45586.5
51325
61789.1
77022.9
100092
136672
210137
341669
659160
1.98872e+06
1.18239e+07
4402.4
9578.55
13627
16870.2
19467.7
21540.3
23197.4
24543.2
25589.2
26365.3
26929.3
27331
27611.9
27804.6
27934.8
28021.3
28078.2
28115.5
28140.3
28157.6
28170.7
28182.2
28194
28207.9
28225.6
28249.7
28283.4
28332.2
28404.4
28512.8
28676.9
28926
29302.4
29867.5
30707.7
31944.4
33746.7
36351
40089.6
45436.6
51146.1
61402.7
76347.4
98805.1
133964
202897
320830
584610
1.29241e+06
5.5132e+06
4401.15
9575.43
13622.1
16863.6
19459.8
21531.3
23185.6
24529.5
25576
26352.7
26916.8
27318.7
27599.6
27792.4
27922.6
28009.1
28066.1
28103.4
28128.3
28145.6
28158.7
28170.3
28182.2
28196.2
28214.2
28238.4
28272.3
28321.3
28393.6
28502.1
28666.2
28915.1
29291.1
29855.4
30694.3
31928.6
33727.2
36325.5
40054.2
45384.3
51109.3
61217.6
76010.9
98129.9
132439
198914
307443
524821
967371
1.97662e+06
4401.9
9578.44
13627.3
16870.6
19468.3
21541
23198
24543.6
25589.5
26365.7
26929.6
27331.4
27612.2
27805
27935.1
28021.6
28078.5
28115.9
28140.7
28157.9
28171
28182.5
28194.3
28208.2
28226
28250
28283.8
28332.6
28404.8
28513.2
28677.3
28926.3
29302.8
29867.8
30708
31944.6
33746.9
36351.1
40089.7
45436.7
51221.4
61280.5
76126.3
98364
132976
201407
315958
563658
1.23054e+06
4.58395e+06
4404.38
9587.77
13643.1
16892.2
19494.5
21571.3
23235.2
24584.2
25629.5
26405.1
26968.7
27370.2
27650.8
27843.5
27973.5
28059.9
28116.7
28153.9
28178.6
28195.7
28208.6
28219.9
28231.4
28244.9
28262.3
28285.8
28319.1
28367.4
28439.2
28547.3
28711.5
28960.9
29338.6
29905.8
30749.8
31992.8
33805.5
36426.6
40192.9
45586.5
51460.9
61575.6
76654.1
99400.7
135248
208286
336771
644194
1.64016e+06
1.17256e+07
4408.71
9604.41
13671.5
16930.7
19541.6
21625.6
23300.3
24654.4
25699.5
26474.6
27037.8
27439.1
27719.5
27911.9
28041.7
28128
28184.7
28221.7
28246.2
28263.1
28275.7
28286.6
28297.7
28310.6
28327.3
28350.1
28382.6
28430.2
28501.3
28609
28773.2
29023.3
29402.6
29973.2
30822.9
32075.5
33903.8
36550
40357
45817.4
51799.3
62036.6
77437.3
100838
138127
215331
353855
689690
1.75025e+06
1.19207e+07
4414.9
9630.92
13717.2
16993.1
19617.5
21712.9
23403
24764.2
25809.6
26584.8
27147.8
27548.7
27828.8
28021
28150.5
28236.6
28293
28329.8
28354.1
28370.6
28382.9
28393.3
28403.8
28416
28431.9
28453.7
28485.2
28531.8
28602.1
28709.2
28873.3
29124.1
29505.3
30079.8
30936.5
32200.8
34048
36724.8
40580.4
46119.1
52214
62604.7
78339.3
102356
140842
220846
365240
718036
1.99402e+06
1.63319e+07
4424.37
9672.24
13788.6
17090.2
19735.6
21848.5
23559
24930
25976.9
26752.7
27315.8
27716.5
27996.2
28188
28317.2
28402.8
28458.9
28495.5
28519.4
28535.5
28547.4
28557.2
28567
28578.5
28593.4
28614.2
28644.5
28690
28759.2
28865.5
29029.2
29280.4
29663.4
30241.6
31105.5
32382
34249.4
36958.7
40866.2
46486.7
52695.5
63240.4
79282.3
103812
143177
224930
372700
735576
2.06339e+06
1.69146e+07
4439.3
9736.38
13898.8
17239.8
19916.9
22056.1
23793.2
25177
26227.5
27005.1
27568.7
27969.3
28248.5
28439.7
28568.3
28653.4
28709.1
28745.2
28768.7
28784.4
28795.7
28805
28814.1
28824.7
28838.6
28858.3
28887.3
28931.5
28999.4
29104.5
29267.4
29518.4
29902.3
30483.4
31353.2
32640.7
34527.2
37267.9
41226.1
46927.1
53251.4
63938.1
80264.5
105242
145317
228416
378133
743609
2.07224e+06
1.69162e+07
4463.25
9835.81
14068.3
17468.6
20193
22372.2
24143.4
25543.8
26601.2
27382
27946.7
28347
28625.5
28815.8
28943.5
29027.9
29082.9
29118.5
29141.5
29156.7
29167.5
29176.2
29184.6
29194.3
29207.1
29225.6
29253.3
29295.9
29362.2
29465.7
29627
29876.8
30260.1
30842
31715
33010.2
34911.7
37679.5
41683.8
47460.9
53906.2
64719.1
81333.2
106777
147621
232534
385688
758840
2.0968e+06
1.69198e+07
4501.9
9989.64
14328
17816.5
20610.7
22849.6
24666.1
26088.1
27156.3
27941.8
28507.8
28907.7
29185
29373.8
29500.2
29583.5
29637.6
29672.4
29694.8
29709.5
29719.8
29727.8
29735.5
29744.3
29756.1
29773.4
29799.6
29840.5
29904.8
30006
30164.6
30411.5
30791.8
31371.1
32243
33539.9
35449.3
38235.6
42276.9
48121.8
54695.2
65617.9
82544.6
108543
150482
224026
368316
716145
1.93335e+06
1.21639e+07
4564.29
10227.1
14724.3
18343.7
21239.6
23566.4
25444.5
26894.1
27976.5
28767.8
29334.9
29733.6
30008.9
30195.5
30319.9
30401.6
30454.4
30488.3
30509.9
30523.9
30533.6
30541
30547.9
30555.9
30566.7
30582.7
30607.3
30646.2
30708
30805.9
30960.5
31202.2
31576.2
32148.1
33011.9
34301.7
36207.3
38998.4
43060.7
48956
55666.3
66673.1
83937
110563
153689
229193
378446
739984
2.00777e+06
1.24058e+07
4664.65
10592.6
15327.3
19139.7
22184.8
24640.2
26595.3
28079.5
29179
29976.6
30544
30940.2
31211.9
31395.2
31516.7
31596.1
31647.1
31679.7
31700.3
31713.6
31722.6
31729.4
31735.6
31742.8
31752.5
31767.2
31790.1
31826.6
31885.2
31978.8
32127.5
32361.1
32724.3
33282.2
34128.8
35398.7
37284.1
40059.2
44117.4
50021.4
56904.1
67923.3
85541.5
112877
157370
235428
389169
755757
2.01699e+06
1.23779e+07
4825.56
11154.7
16242.8
20337.5
23602.7
26231.8
28278.2
29808.3
30928
31731.2
32296.7
32687.9
32954.1
33132.2
33249.6
33325.7
33374.4
33405.3
33424.7
33437.1
33445.4
33451.5
33457
33463.4
33472.1
33485.3
33506.3
33540.1
33594.8
33682.7
33823.2
34045.3
34392.3
34928.1
35745.5
36978.5
38820.7
41552.1
45583.1
51532.1
60396.4
73546.3
93657.9
125537
179024
277043
482968
1.02053e+06
3.04092e+06
1.79872e+07
5083.01
12019.4
17632.3
22135.4
25726.2
28575
30728.9
32312.3
33452.2
34257.9
34817.5
35200.1
35457.6
35628.3
35739.8
35811.7
35857.3
35886
35904
35915.3
35922.7
35928.2
35933
35938.6
35946.2
35958
35976.8
36007.4
36057.3
36138.2
36268.2
36474.8
36799.4
37303.4
38077
39251.8
41019.7
43661.7
47593.9
53444.7
62188.8
75362.5
95678.2
128148
183040
284213
497128
1.04963e+06
3.09629e+06
1.79872e+07
5495.33
13354.7
19746.8
24846.4
28890
31993.9
34276.4
35916.5
37072.5
37873.9
38421.2
38789.7
39034.4
39194.8
39298.5
39364.6
39406.4
39432.4
39448.6
39458.7
39465.3
39470
39474.2
39478.9
39485.5
39495.6
39512.1
39539.2
39583.6
39655.9
39772.9
39959.9
40255.4
40717.3
41431
42523.1
44179.9
46678
50431.4
56070.8
64581.1
77558.7
97765.7
130311
185601
287642
501914
1.05568e+06
3.1015e+06
1.79872e+07
6159.05
15430.3
22974.6
28941.4
33564.2
36966.5
39391.5
41083.6
42244.6
43030.3
43555.5
43902.7
44129.6
44276.2
44369.9
44429
44466
44488.9
44503
44511.7
44517.3
44521.3
44524.8
44528.7
44534.2
44542.8
44556.8
44579.9
44618.1
44680.7
44782.4
44946.1
45206.3
45615.7
46253.2
47236.9
48743.3
51038.6
54527
59833.4
67947.1
80490
100262
132429
187455
289363
503530
1.05696e+06
3.10205e+06
1.79872e+07
7238.59
18692.1
27950.2
35135
40450.2
44193.9
46759.8
48485.7
49631.4
50384.1
50874.6
51191.7
51395
51524.3
51605.7
51656.6
51688.1
51707.4
51719.2
51726.4
51731
51734.3
51737.1
51740.2
51744.7
51751.6
51763.1
51782
51813.5
51865.5
51950.4
52087.7
52307.5
52655.8
53202.6
54054.2
55372.6
57406.2
60540.4
65382.5
72911.8
84756.4
103744
135097
189355
290612
504269
1.0573e+06
3.10213e+06
1.79872e+07
9023.62
23891.1
35682.8
44487.9
50629.7
54735.8
57415.4
59138.8
60237.8
60934.9
61375.6
61653.2
61827.4
61936.2
62003.6
62045.2
62070.7
62086.1
62095.5
62101.2
62104.8
62107.4
62109.5
62112
62115.4
62120.8
62129.7
62144.5
62169.3
62210.3
62277.6
62387
62563.4
62844.9
63290.6
63992.1
65091.5
66811.8
69507.7
73753.1
80496.2
91347.7
109147
139177
192101
292177
504964
1.05751e+06
3.10216e+06
1.79872e+07
12053.8
32362.5
47918.3
58772.6
65842
70276.7
73003.5
74665.3
75675.9
76291.2
76666.8
76896.5
77037.1
77123.2
77175.7
77207.6
77226.9
77238.5
77245.5
77249.7
77252.4
77254.3
77255.9
77257.7
77260.2
77264.1
77270.7
77281.6
77299.9
77330.3
77380.4
77462.3
77595.1
77808.5
78149.7
78692.5
79554.7
80926
83117.4
86648.1
92404.9
101941
118067
146106
196875
294918
506144
1.05782e+06
3.10219e+06
1.79872e+07
17406.7
46603.7
67596.2
80999.2
89018.2
93663.9
96321.7
97841.3
98715.6
99223.5
99521.4
99697.8
99802.9
99865.8
99903.5
99926.1
99939.6
99947.7
99952.5
99955.4
99957.2
99958.5
99959.6
99960.9
99962.6
99965.3
99969.8
99977.3
99989.9
100011
100045
100102
100194
100344
100585
100973
101598
102611
104264
107000
111603
119504
133400
158562
205925
300433
508666
1.05852e+06
3.10227e+06
1.79872e+07
27457.6
71665
100387
116741
125526
130140
132560
133845
134538
134920
135134
135257
135328
135369
135393
135408
135416
135421
135424
135426
135427
135428
135429
135430
135431
135433
135435
135440
135448
135461
135483
135518
135576
135671
135825
136076
136485
137161
138291
140217
143575
149589
160693
181897
224033
312398
514673
1.06036e+06
3.10249e+06
1.79872e+07
48119.9
118768
157953
177183
186196
190392
192377
193342
193826
194078
194213
194287
194329
194353
194366
194374
194379
194382
194384
194385
194385
194386
194386
194387
194387
194389
194390
194393
194397
194404
194416
194436
194468
194521
194607
194749
194983
195377
196052
197239
199390
203433
211343
227493
262030
340009
530312
1.06585e+06
3.1032e+06
1.79872e+07
96213.2
214152
266591
287605
295855
299160
300539
301145
301426
301563
301633
301670
301690
301702
301708
301712
301714
301715
301716
301716
301717
301717
301717
301718
301718
301719
301720
301721
301723
301727
301732
301741
301757
301781
301821
301888
302000
302190
302524
303127
304267
306523
311234
321665
346210
407822
574733
1.08478e+06
3.10623e+06
1.79872e+07
228659
431037
496296
516099
522249
524283
525012
525298
525419
525475
525502
525516
525523
525527
525529
525531
525531
525532
525532
525532
525533
525533
525533
525533
525533
525534
525534
525535
525536
525537
525539
525543
525549
525558
525572
525596
525637
525707
525831
526062
526514
527454
529556
534657
548174
587434
712735
1.16002e+06
3.1232e+06
1.79872e+07
679450
1.01714e+06
1.08474e+06
1.09848e+06
1.10156e+06
1.10235e+06
1.10259e+06
1.10267e+06
1.1027e+06
1.10271e+06
1.10272e+06
1.10272e+06
1.10273e+06
1.10273e+06
1.10273e+06
1.10273e+06
1.10273e+06
1.10273e+06
1.10273e+06
1.10273e+06
1.10273e+06
1.10273e+06
1.10273e+06
1.10273e+06
1.10273e+06
1.10273e+06
1.10273e+06
1.10273e+06
1.10273e+06
1.10273e+06
1.10273e+06
1.10273e+06
1.10273e+06
1.10274e+06
1.10274e+06
1.10275e+06
1.10276e+06
1.10277e+06
1.1028e+06
1.10286e+06
1.10297e+06
1.10321e+06
1.10378e+06
1.1053e+06
1.1099e+06
1.12603e+06
1.19191e+06
1.50335e+06
3.24976e+06
1.79872e+07
2.70016e+06
3.18574e+06
3.23008e+06
3.23475e+06
3.23538e+06
3.23549e+06
3.23552e+06
3.23553e+06
3.23554e+06
3.23554e+06
3.23554e+06
3.23554e+06
3.23554e+06
3.23554e+06
3.23554e+06
3.23554e+06
3.23554e+06
3.23554e+06
3.23554e+06
3.23554e+06
3.23554e+06
3.23554e+06
3.23554e+06
3.23554e+06
3.23554e+06
3.23554e+06
3.23554e+06
3.23554e+06
3.23554e+06
3.23554e+06
3.23555e+06
3.23555e+06
3.23555e+06
3.23555e+06
3.23555e+06
3.23555e+06
3.23555e+06
3.23556e+06
3.23556e+06
3.23557e+06
3.23558e+06
3.23561e+06
3.23567e+06
3.23585e+06
3.23643e+06
3.23891e+06
3.25305e+06
3.36211e+06
4.43127e+06
1.79872e+07
1.87595e+07
1.87595e+07
1.87595e+07
1.87595e+07
1.87595e+07
1.87595e+07
1.87595e+07
1.87595e+07
1.87595e+07
1.87595e+07
1.87595e+07
1.87595e+07
1.87595e+07
1.87595e+07
1.87595e+07
1.87595e+07
1.87595e+07
1.87595e+07
1.87595e+07
1.87595e+07
1.87595e+07
1.87595e+07
1.87595e+07
1.87595e+07
1.87595e+07
1.87595e+07
1.87595e+07
1.87595e+07
1.87595e+07
1.87595e+07
1.87595e+07
1.87595e+07
1.87595e+07
1.87595e+07
1.87595e+07
1.87595e+07
1.87595e+07
1.87595e+07
1.87595e+07
1.87595e+07
1.87595e+07
1.87595e+07
1.87595e+07
1.87595e+07
1.87595e+07
1.87595e+07
1.87595e+07
1.87595e+07
1.87595e+07
1.87595e+07
6.6447e+07
6.76661e+07
6.76663e+07
6.7667e+07
6.76592e+07
6.76387e+07
6.71683e+07
6.76564e+07
6.72549e+07
6.7283e+07
6.7285e+07
6.73295e+07
6.75014e+07
6.75826e+07
6.76939e+07
6.76743e+07
6.76689e+07
6.76663e+07
6.76649e+07
6.76639e+07
3.10498e+06
3.31599e+06
3.32433e+06
3.32352e+06
3.3085e+06
3.28376e+06
3.2563e+06
3.25856e+06
3.22903e+06
3.23061e+06
3.23232e+06
3.23276e+06
3.24493e+06
3.27007e+06
3.30489e+06
3.32592e+06
3.32472e+06
3.32454e+06
3.32229e+06
3.25285e+06
1.15726e+07
1.19499e+07
1.19515e+07
1.19523e+07
1.19843e+07
1.20871e+07
1.16417e+07
1.15876e+07
1.16011e+07
1.15993e+07
1.16106e+07
1.16687e+07
1.17159e+07
1.15661e+07
1.16659e+07
1.19236e+07
1.1945e+07
1.19503e+07
1.19512e+07
1.19096e+07
1.87595e+07
1.87595e+07
1.87595e+07
1.87595e+07
1.87595e+07
1.87595e+07
1.87595e+07
1.87595e+07
1.87595e+07
1.87595e+07
1.87595e+07
1.87595e+07
1.87595e+07
1.87595e+07
1.87595e+07
1.87595e+07
1.87595e+07
1.87595e+07
1.87595e+07
1.87595e+07
1.87595e+07
1.87595e+07
1.87595e+07
1.87595e+07
1.87595e+07
1.87595e+07
1.87595e+07
1.87595e+07
1.87595e+07
1.87595e+07
1.87595e+07
1.87595e+07
1.87595e+07
1.87595e+07
1.87595e+07
1.87595e+07
1.87595e+07
1.87595e+07
1.87595e+07
1.87595e+07
1.87595e+07
1.87595e+07
1.87595e+07
1.87595e+07
1.87595e+07
1.87595e+07
1.87595e+07
1.87595e+07
1.87595e+07
1.87595e+07
1.87595e+07
1.87595e+07
1.87595e+07
1.87595e+07
1.87595e+07
1.87595e+07
1.87595e+07
1.87595e+07
1.87595e+07
1.87595e+07
1.87595e+07
1.87595e+07
1.87595e+07
1.87595e+07
1.87595e+07
1.87595e+07
1.87595e+07
1.87595e+07
1.87595e+07
1.87595e+07
1.87595e+07
1.87595e+07
1.87595e+07
1.87595e+07
1.87595e+07
1.87595e+07
1.87595e+07
1.87595e+07
1.87595e+07
1.87595e+07
1.87595e+07
1.87595e+07
1.87595e+07
1.87595e+07
1.87595e+07
1.87595e+07
1.87595e+07
1.87595e+07
1.87595e+07
1.87595e+07
1.87595e+07
1.87595e+07
1.87595e+07
1.87595e+07
1.87595e+07
1.87595e+07
1.87595e+07
1.87595e+07
1.87595e+07
1.87595e+07
1.79872e+07
4.43127e+06
3.36208e+06
3.25302e+06
3.23888e+06
3.23641e+06
3.23582e+06
3.23564e+06
3.23558e+06
3.23556e+06
3.23555e+06
3.23554e+06
3.23554e+06
3.23554e+06
3.23554e+06
3.23554e+06
3.23554e+06
3.23554e+06
3.23554e+06
3.23554e+06
3.23554e+06
3.23554e+06
3.23554e+06
3.23554e+06
3.23554e+06
3.23554e+06
3.23554e+06
3.23554e+06
3.23554e+06
3.23554e+06
3.23554e+06
3.23554e+06
3.23554e+06
3.23554e+06
3.23554e+06
3.23554e+06
3.23554e+06
3.23554e+06
3.23554e+06
3.23554e+06
3.23554e+06
3.23554e+06
3.23554e+06
3.23554e+06
3.23554e+06
3.23554e+06
3.23554e+06
3.23554e+06
3.23554e+06
3.23554e+06
3.23554e+06
3.23554e+06
3.23554e+06
3.23554e+06
3.23554e+06
3.23554e+06
3.23554e+06
3.23554e+06
3.23554e+06
3.23554e+06
3.23554e+06
3.23554e+06
3.23554e+06
3.23554e+06
3.23554e+06
3.23554e+06
3.23554e+06
3.23554e+06
3.23554e+06
3.23554e+06
3.23554e+06
3.23554e+06
3.23554e+06
3.23554e+06
3.23554e+06
3.23554e+06
3.23554e+06
3.23554e+06
3.23554e+06
3.23554e+06
3.23554e+06
3.23554e+06
3.23554e+06
3.23554e+06
3.23554e+06
3.23554e+06
3.23554e+06
3.23554e+06
3.23554e+06
3.23554e+06
3.23554e+06
3.23554e+06
3.23554e+06
3.23554e+06
3.23554e+06
3.23554e+06
3.23554e+06
3.23554e+06
3.23554e+06
3.23554e+06
1.79872e+07
3.24979e+06
1.50335e+06
1.1919e+06
1.12601e+06
1.10988e+06
1.10528e+06
1.10377e+06
1.1032e+06
1.10296e+06
1.10285e+06
1.10279e+06
1.10276e+06
1.10275e+06
1.10274e+06
1.10273e+06
1.10273e+06
1.10273e+06
1.10273e+06
1.10273e+06
1.10273e+06
1.10273e+06
1.10273e+06
1.10273e+06
1.10273e+06
1.10273e+06
1.10273e+06
1.10273e+06
1.10273e+06
1.10273e+06
1.10273e+06
1.10273e+06
1.10273e+06
1.10273e+06
1.10273e+06
1.10273e+06
1.10273e+06
1.10273e+06
1.10273e+06
1.10273e+06
1.10273e+06
1.10273e+06
1.10273e+06
1.10273e+06
1.10273e+06
1.10273e+06
1.10273e+06
1.10273e+06
1.10273e+06
1.10273e+06
1.10273e+06
1.10273e+06
1.10273e+06
1.10273e+06
1.10273e+06
1.10273e+06
1.10273e+06
1.10273e+06
1.10273e+06
1.10273e+06
1.10273e+06
1.10273e+06
1.10273e+06
1.10273e+06
1.10273e+06
1.10273e+06
1.10273e+06
1.10273e+06
1.10273e+06
1.10273e+06
1.10273e+06
1.10273e+06
1.10273e+06
1.10273e+06
1.10273e+06
1.10273e+06
1.10273e+06
1.10273e+06
1.10273e+06
1.10273e+06
1.10273e+06
1.10273e+06
1.10273e+06
1.10273e+06
1.10273e+06
1.10273e+06
1.10273e+06
1.10273e+06
1.10273e+06
1.10273e+06
1.10273e+06
1.10273e+06
1.10273e+06
1.10273e+06
1.10273e+06
1.10273e+06
1.10273e+06
1.10273e+06
1.10273e+06
1.10273e+06
1.79872e+07
3.12323e+06
1.16003e+06
712735
587426
548162
534644
529542
527440
526500
526050
525820
525696
525628
525588
525565
525551
525543
525538
525535
525533
525532
525532
525531
525531
525531
525531
525531
525531
525531
525531
525531
525531
525531
525531
525531
525532
525532
525532
525532
525532
525532
525532
525532
525532
525532
525532
525532
525532
525532
525532
525532
525532
525532
525532
525532
525532
525532
525532
525532
525532
525532
525532
525532
525532
525532
525532
525532
525532
525532
525532
525532
525532
525532
525532
525532
525532
525532
525532
525532
525532
525532
525532
525532
525532
525532
525532
525532
525532
525532
525532
525532
525532
525532
525532
525532
525532
525532
525532
525532
1.79872e+07
3.10626e+06
1.0848e+06
574743
407823
346205
321656
311224
306511
304256
303117
302514
302182
301993
301882
301816
301777
301753
301739
301730
301725
301722
301720
301719
301718
301717
301717
301717
301717
301716
301716
301716
301716
301716
301716
301716
301716
301716
301716
301716
301716
301716
301716
301716
301716
301716
301716
301716
301716
301716
301716
301716
301716
301716
301716
301716
301716
301716
301716
301716
301716
301716
301716
301716
301716
301716
301716
301716
301716
301716
301716
301716
301716
301716
301716
301716
301716
301716
301716
301716
301716
301716
301716
301716
301716
301716
301716
301716
301716
301716
301716
301716
301716
301716
301716
301717
301717
301717
301717
301716
1.79872e+07
3.10324e+06
1.06587e+06
530327
340017
262032
227490
211337
203426
199382
197232
196047
195374
194981
194748
194608
194523
194471
194440
194421
194409
194401
194397
194394
194392
194390
194389
194388
194387
194386
194386
194386
194385
194385
194385
194385
194385
194385
194385
194385
194385
194385
194385
194385
194385
194385
194385
194385
194385
194385
194385
194385
194385
194385
194385
194385
194385
194385
194385
194385
194385
194385
194385
194385
194385
194385
194385
194385
194385
194385
194385
194385
194385
194385
194385
194385
194385
194385
194385
194385
194385
194385
194385
194385
194385
194385
194385
194385
194385
194385
194385
194385
194385
194385
194385
194386
194386
194386
194386
194385
1.79872e+07
3.10252e+06
1.06038e+06
514693
312412
224041
181901
160694
149588
143574
140217
138293
137166
136493
136085
135837
135685
135591
135534
135498
135477
135463
135454
135448
135443
135440
135437
135435
135433
135431
135430
135429
135429
135428
135428
135428
135427
135427
135427
135427
135427
135427
135427
135427
135427
135427
135427
135426
135426
135426
135427
135427
135427
135427
135427
135427
135427
135428
135428
135428
135428
135428
135428
135428
135428
135428
135428
135428
135428
135428
135428
135428
135428
135428
135428
135428
135428
135428
135428
135428
135428
135428
135428
135428
135428
135428
135428
135428
135428
135428
135428
135428
135428
135428
135428
135428
135428
135429
135429
135428
1.79872e+07
3.10231e+06
1.05855e+06
508689
300452
205940
158572
133407
119511
111611
107011
104279
102630
101622
101001
100617
100379
100231
100139
100082
100047
100023
100008
99997.1
99988.9
99982.3
99976.9
99972.3
99968.6
99965.5
99963.1
99961.2
99959.8
99958.8
99958.1
99957.7
99957.3
99957.1
99957
99956.8
99956.7
99956.6
99956.4
99956.2
99956
99955.8
99955.6
99955.5
99955.5
99955.6
99955.9
99956.2
99956.6
99957
99957.3
99957.6
99957.7
99957.9
99958
99958
99958
99958
99958
99958.1
99958.1
99958.1
99958.1
99958.1
99958.1
99958.1
99958.1
99958.1
99958.1
99958.1
99958.1
99958.1
99958.1
99958.1
99958.1
99958.1
99958.1
99958.1
99958.1
99958.1
99958.1
99958.1
99958.1
99958.1
99958.1
99958.1
99958.1
99958.2
99958.2
99958.3
99958.5
99958.7
99958.8
99959
99959
99958.3
1.79872e+07