/*--------------------------------*- C++ -*----------------------------------*\
| =========                 |                                                 |
| \\      /  F ield         | foam-extend: Open Source CFD                    |
|  \\    /   O peration     | Version:     4.0                                |
|   \\  /    A nd           | Web:         http://www.foam-extend.org         |
|    \\/     M anipulation  |                                                 |
\*---------------------------------------------------------------------------*/
FoamFile
{
    version     2.0;
    format      ascii;
    class       surfaceScalarField;
    location    "0.0003";
    object      phi;
}
// * * * * * * * * * * * * * * * * * * * * * * * * * * * * * * * * * * * * * //

dimensions      [0 3 -1 0 0 0 0];

internalField   nonuniform List<scalar> 
57362
(
3.4817e-11
2.06717e-15
3.48108e-11
6.23307e-15
3.48003e-11
1.04941e-14
3.47854e-11
1.49153e-14
3.47658e-11
1.95637e-14
3.47413e-11
2.45098e-14
3.47115e-11
2.9828e-14
3.46759e-11
3.55981e-14
3.46339e-11
4.19058e-14
3.45851e-11
4.88443e-14
3.45286e-11
5.65151e-14
3.44635e-11
6.50291e-14
3.4389e-11
7.45083e-14
3.43039e-11
8.50864e-14
3.4207e-11
9.69107e-14
3.40968e-11
1.10143e-13
3.39719e-11
1.2496e-13
3.38303e-11
1.41558e-13
3.36701e-11
1.60147e-13
3.34891e-11
1.8096e-13
3.32849e-11
2.04246e-13
3.30546e-11
2.30275e-13
3.27952e-11
2.59334e-13
3.25035e-11
2.91729e-13
3.21756e-11
3.27778e-13
3.18078e-11
3.67812e-13
3.13956e-11
4.12168e-13
3.09344e-11
4.61172e-13
3.04192e-11
5.15158e-13
2.98447e-11
5.74401e-13
2.92055e-11
6.39193e-13
2.84958e-11
7.09667e-13
2.77097e-11
7.8604e-13
2.68414e-11
8.68159e-13
2.58853e-11
9.56132e-13
2.48359e-11
1.04932e-12
2.36882e-11
1.14769e-12
2.24382e-11
1.24992e-12
2.10825e-11
1.35573e-12
1.96193e-11
1.46309e-12
1.80481e-11
1.57126e-12
1.63704e-11
1.67767e-12
1.45895e-11
1.78094e-12
1.27112e-11
1.87829e-12
1.07435e-11
1.96779e-12
8.69682e-12
2.04679e-12
6.58371e-12
2.11324e-12
4.41882e-12
2.16501e-12
2.21843e-12
2.20053e-12
2.21858e-12
3.48175e-11
4.10365e-15
3.48113e-11
1.23737e-14
3.4801e-11
2.08327e-14
3.47863e-11
2.96097e-14
3.4767e-11
3.88381e-14
3.47429e-11
4.86579e-14
3.47135e-11
5.92169e-14
3.46784e-11
7.06737e-14
3.46371e-11
8.31987e-14
3.4589e-11
9.69772e-14
3.45333e-11
1.12211e-13
3.44692e-11
1.29121e-13
3.43957e-11
1.47949e-13
3.43118e-11
1.68963e-13
3.42163e-11
1.92455e-13
3.41077e-11
2.18747e-13
3.39844e-11
2.48194e-13
3.38448e-11
2.81182e-13
3.36868e-11
3.18138e-13
3.35082e-11
3.59521e-13
3.33066e-11
4.05833e-13
3.30792e-11
4.57613e-13
3.28231e-11
5.15438e-13
3.25349e-11
5.79919e-13
3.22109e-11
6.51701e-13
3.18472e-11
7.31447e-13
3.14395e-11
8.19839e-13
3.09831e-11
9.17542e-13
3.0473e-11
1.02523e-12
2.99039e-11
1.14348e-12
2.92702e-11
1.27288e-12
2.8566e-11
1.41372e-12
2.77856e-11
1.56648e-12
2.69228e-11
1.73084e-12
2.59719e-11
1.90711e-12
2.49272e-11
2.09395e-12
2.37835e-11
2.29144e-12
2.25366e-11
2.49679e-12
2.11827e-11
2.70971e-12
1.972e-11
2.92581e-12
1.81475e-11
3.14396e-12
1.64665e-11
3.35863e-12
1.46803e-11
3.56732e-12
1.27945e-11
3.76415e-12
1.08172e-11
3.94536e-12
8.75866e-12
4.1054e-12
6.63191e-12
4.24017e-12
4.45186e-12
4.34521e-12
2.23524e-12
4.41732e-12
4.45398e-12
3.4829e-11
6.07981e-15
3.48231e-11
1.83324e-14
3.4813e-11
3.08653e-14
3.47988e-11
4.38698e-14
3.47801e-11
5.75438e-14
3.47566e-11
7.20948e-14
3.47281e-11
8.77425e-14
3.4694e-11
1.04722e-13
3.4654e-11
1.23286e-13
3.46072e-11
1.43711e-13
3.45531e-11
1.66295e-13
3.44909e-11
1.91368e-13
3.44195e-11
2.1929e-13
3.4338e-11
2.50458e-13
3.42451e-11
2.85309e-13
3.41396e-11
3.24322e-13
3.40197e-11
3.68026e-13
3.38839e-11
4.17001e-13
3.37301e-11
4.71881e-13
3.35563e-11
5.33358e-13
3.33599e-11
6.02181e-13
3.31383e-11
6.79162e-13
3.28885e-11
7.65171e-13
3.26073e-11
8.6113e-13
3.2291e-11
9.68015e-13
3.19355e-11
1.08683e-12
3.15367e-11
1.21863e-12
3.10898e-11
1.36442e-12
3.05897e-11
1.52525e-12
3.00311e-11
1.702e-12
2.94083e-11
1.89565e-12
2.87153e-11
2.10663e-12
2.7946e-11
2.33578e-12
2.70941e-11
2.58259e-12
2.61534e-11
2.84777e-12
2.5118e-11
3.12913e-12
2.39822e-11
3.4272e-12
2.27413e-11
3.73745e-12
2.13911e-11
4.05994e-12
1.9929e-11
4.38763e-12
1.83536e-11
4.71928e-12
1.66659e-11
5.0461e-12
1.48687e-11
5.36457e-12
1.29673e-11
5.66539e-12
1.09698e-11
5.94289e-12
8.88688e-12
6.18832e-12
6.73186e-12
6.3953e-12
4.52037e-12
6.55679e-12
2.27007e-12
6.66775e-12
6.72419e-12
3.48409e-11
7.9662e-15
3.48352e-11
2.40206e-14
3.48256e-11
4.04427e-14
3.4812e-11
5.74836e-14
3.47941e-11
7.54029e-14
3.47717e-11
9.44731e-14
3.47445e-11
1.14983e-13
3.4712e-11
1.3724e-13
3.46737e-11
1.61579e-13
3.4629e-11
1.8836e-13
3.45773e-11
2.17979e-13
3.45178e-11
2.50867e-13
3.44496e-11
2.87501e-13
3.43717e-11
3.28403e-13
3.42828e-11
3.74149e-13
3.41817e-11
4.25375e-13
3.4067e-11
4.82781e-13
3.39368e-11
5.47132e-13
3.37894e-11
6.19273e-13
3.36226e-11
7.00122e-13
3.34341e-11
7.90681e-13
3.32212e-11
8.92032e-13
3.2981e-11
1.00534e-12
3.27103e-11
1.13185e-12
3.24054e-11
1.27288e-12
3.20624e-11
1.42978e-12
3.1677e-11
1.604e-12
3.12444e-11
1.79692e-12
3.07596e-11
2.01002e-12
3.02171e-11
2.2445e-12
2.96109e-11
2.5018e-12
2.8935e-11
2.78251e-12
2.81828e-11
3.08803e-12
2.73477e-11
3.41757e-12
2.64231e-11
3.77257e-12
2.54023e-11
4.14972e-12
2.42792e-11
4.55069e-12
2.30481e-11
4.9684e-12
2.1704e-11
5.40454e-12
2.02437e-11
5.84791e-12
1.86647e-11
6.29881e-12
1.69674e-11
6.74346e-12
1.5154e-11
7.1785e-12
1.32294e-11
7.59004e-12
1.12019e-11
7.97087e-12
9.0821e-12
8.30827e-12
6.88422e-12
8.59348e-12
4.6249e-12
8.81632e-12
2.32326e-12
8.96965e-12
9.04769e-12
3.48528e-11
9.73463e-15
3.48475e-11
2.93532e-14
3.48385e-11
4.94219e-14
3.48257e-11
7.02479e-14
3.4809e-11
9.21494e-14
3.4788e-11
1.1546e-13
3.47624e-11
1.40533e-13
3.47319e-11
1.67747e-13
3.4696e-11
1.97511e-13
3.46541e-11
2.30268e-13
3.46056e-11
2.66503e-13
3.45497e-11
3.06748e-13
3.44856e-11
3.51588e-13
3.44123e-11
4.01668e-13
3.43287e-11
4.57698e-13
3.42336e-11
5.20463e-13
3.41256e-11
5.90829e-13
3.40029e-11
6.69747e-13
3.38639e-11
7.58264e-13
3.37065e-11
8.57524e-13
3.35284e-11
9.68778e-13
3.3327e-11
1.09338e-12
3.30995e-11
1.2328e-12
3.28428e-11
1.3886e-12
3.25531e-11
1.56246e-12
3.22268e-11
1.75611e-12
3.18593e-11
1.9714e-12
3.14461e-11
2.21012e-12
3.09819e-11
2.47422e-12
3.0461e-11
2.76528e-12
2.98774e-11
3.08531e-12
2.92247e-11
3.43508e-12
2.8496e-11
3.81674e-12
2.7684e-11
4.22915e-12
2.67817e-11
4.67494e-12
2.57816e-11
5.14933e-12
2.46764e-11
5.65586e-12
2.34597e-11
6.18435e-12
2.21253e-11
6.73893e-12
2.06687e-11
7.3037e-12
1.90864e-11
7.88096e-12
1.73774e-11
8.45166e-12
1.55432e-11
9.0125e-12
1.35882e-11
9.54457e-12
1.15202e-11
1.00388e-11
9.35046e-12
1.04778e-11
7.09402e-12
1.08499e-11
4.76902e-12
1.11413e-11
2.39665e-12
1.13421e-11
1.14444e-11
3.48753e-11
1.13591e-14
3.48704e-11
3.42518e-14
3.48622e-11
5.76708e-14
3.48505e-11
8.19753e-14
3.48351e-11
1.07537e-13
3.48158e-11
1.34747e-13
3.47923e-11
1.64019e-13
3.47642e-11
1.95796e-13
3.47312e-11
2.30557e-13
3.46926e-11
2.68823e-13
3.4648e-11
3.11162e-13
3.45965e-11
3.58201e-13
3.45374e-11
4.10627e-13
3.44699e-11
4.69201e-13
3.43928e-11
5.3476e-13
3.43051e-11
6.08234e-13
3.42052e-11
6.90646e-13
3.40918e-11
7.83126e-13
3.39632e-11
8.8692e-13
3.38173e-11
1.00339e-12
3.3652e-11
1.13404e-12
3.34648e-11
1.2805e-12
3.32531e-11
1.44453e-12
3.30136e-11
1.62803e-12
3.2743e-11
1.83306e-12
3.24373e-11
2.06173e-12
3.20924e-11
2.31634e-12
3.17033e-11
2.59912e-12
3.1265e-11
2.91258e-12
3.07715e-11
3.25869e-12
3.02167e-11
3.6402e-12
2.95936e-11
4.05803e-12
2.88951e-11
4.51549e-12
2.81132e-11
5.01081e-12
2.72401e-11
5.54867e-12
2.62671e-11
6.12191e-12
2.51861e-11
6.73794e-12
2.39892e-11
7.38088e-12
2.26682e-11
8.06139e-12
2.12179e-11
8.75381e-12
1.96321e-11
9.46837e-12
1.79092e-11
1.01747e-11
1.60492e-11
1.08739e-11
1.40555e-11
1.15386e-11
1.19359e-11
1.21593e-11
9.70163e-12
1.27124e-11
7.3691e-12
1.31831e-11
4.95826e-12
1.35525e-11
2.4931e-12
1.38078e-11
1.39379e-11
3.48974e-11
1.2815e-14
3.48931e-11
3.86424e-14
3.48857e-11
6.50647e-14
3.48751e-11
9.24884e-14
3.48613e-11
1.21334e-13
3.4844e-11
1.52044e-13
3.4823e-11
1.85087e-13
3.47978e-11
2.20965e-13
3.47681e-11
2.60221e-13
3.47335e-11
3.03446e-13
3.46934e-11
3.51287e-13
3.46471e-11
4.04456e-13
3.4594e-11
4.63736e-13
3.45332e-11
5.29994e-13
3.44638e-11
6.0419e-13
3.43846e-11
6.87385e-13
3.42945e-11
7.80756e-13
3.4192e-11
8.85602e-13
3.40755e-11
1.00336e-12
3.39433e-11
1.13561e-12
3.37932e-11
1.28409e-12
3.3623e-11
1.45071e-12
3.343e-11
1.63753e-12
3.32112e-11
1.84679e-12
3.29633e-11
2.08092e-12
3.26825e-11
2.34247e-12
3.23646e-11
2.6342e-12
3.20048e-11
2.95883e-12
3.15979e-11
3.31948e-12
3.11378e-11
3.71858e-12
3.06182e-11
4.15978e-12
3.00317e-11
4.64417e-12
2.93708e-11
5.17651e-12
2.86265e-11
5.75436e-12
2.77902e-11
6.38502e-12
2.68523e-11
7.05866e-12
2.58028e-11
7.78738e-12
2.46327e-11
8.54937e-12
2.33315e-11
9.36222e-12
2.18923e-11
1.01912e-11
2.03065e-11
1.10533e-11
1.85702e-11
1.19091e-11
1.66814e-11
1.27618e-11
1.46423e-11
1.35763e-11
1.24599e-11
1.43411e-11
1.01458e-11
1.50257e-11
7.71796e-12
1.56107e-11
5.19872e-12
1.60714e-11
2.6158e-12
1.63906e-11
1.65537e-11
3.49188e-11
1.40802e-14
3.4915e-11
4.2458e-14
3.49086e-11
7.14911e-14
3.48994e-11
1.01627e-13
3.48875e-11
1.3333e-13
3.48724e-11
1.67087e-13
3.48541e-11
2.03416e-13
3.48322e-11
2.4287e-13
3.48063e-11
2.8605e-13
3.47762e-11
3.3361e-13
3.47412e-11
3.86266e-13
3.47008e-11
4.44808e-13
3.46544e-11
5.10106e-13
3.46013e-11
5.83124e-13
3.45406e-11
6.64932e-13
3.44712e-11
7.56716e-13
3.43922e-11
8.59793e-13
3.43021e-11
9.75622e-13
3.41997e-11
1.10582e-12
3.40831e-11
1.25218e-12
3.39505e-11
1.41666e-12
3.37997e-11
1.60145e-12
3.36283e-11
1.8089e-12
3.34335e-11
2.04162e-12
3.3212e-11
2.3024e-12
3.29602e-11
2.59423e-12
3.2674e-11
2.92041e-12
3.23486e-11
3.28413e-12
3.19789e-11
3.68926e-12
3.15586e-11
4.13872e-12
3.10814e-11
4.63726e-12
3.05392e-11
5.18611e-12
2.99243e-11
5.79211e-12
2.92266e-11
6.45152e-12
2.8437e-11
7.17621e-12
2.75436e-11
7.95105e-12
2.65356e-11
8.79831e-12
2.54013e-11
9.6823e-12
2.41272e-11
1.06405e-11
2.27054e-11
1.1612e-11
2.11217e-11
1.26416e-11
1.93716e-11
1.36593e-11
1.74511e-11
1.46859e-11
1.53593e-11
1.5669e-11
1.31032e-11
1.65996e-11
1.06932e-11
1.74365e-11
8.14947e-12
1.8156e-11
5.49692e-12
1.87249e-11
2.76823e-12
1.91203e-11
1.93227e-11
3.49498e-11
1.51356e-14
3.49466e-11
4.56412e-14
3.49413e-11
7.68531e-14
3.49336e-11
1.09254e-13
3.49236e-11
1.43344e-13
3.49111e-11
1.79649e-13
3.48957e-11
2.18728e-13
3.48774e-11
2.6118e-13
3.48558e-11
3.07653e-13
3.48306e-11
3.58857e-13
3.48013e-11
4.15569e-13
3.47674e-11
4.78644e-13
3.47285e-11
5.4903e-13
3.46838e-11
6.27778e-13
3.46327e-11
7.16056e-13
3.45743e-11
8.15161e-13
3.45075e-11
9.26539e-13
3.44313e-11
1.0518e-12
3.43444e-11
1.19272e-12
3.42453e-11
1.35128e-12
3.41322e-11
1.52969e-12
3.40033e-11
1.73037e-12
3.38562e-11
1.95599e-12
3.36883e-11
2.20946e-12
3.34967e-11
2.49402e-12
3.32778e-11
2.81307e-12
3.30277e-11
3.17047e-12
3.27417e-11
3.56996e-12
3.24148e-11
4.01618e-12
3.20406e-11
4.51262e-12
3.16126e-11
5.06531e-12
3.11223e-11
5.67571e-12
3.05616e-11
6.35298e-12
2.99194e-11
7.09232e-12
2.91855e-11
7.91033e-12
2.83468e-11
8.78735e-12
2.73899e-11
9.75508e-12
2.63021e-11
1.07669e-11
2.50657e-11
1.18756e-11
2.36708e-11
1.30031e-11
2.20999e-11
1.42098e-11
2.03424e-11
1.54127e-11
1.83906e-11
1.66351e-11
1.62408e-11
1.78154e-11
1.38981e-11
1.89403e-11
1.13731e-11
1.99595e-11
8.68724e-12
2.08407e-11
5.86963e-12
2.15414e-11
2.95906e-12
2.20304e-11
2.22813e-11
3.49793e-11
1.59648e-14
3.49768e-11
4.81422e-14
3.49726e-11
8.10668e-14
3.49666e-11
1.15249e-13
3.49587e-11
1.51219e-13
3.49488e-11
1.89533e-13
3.49368e-11
2.30783e-13
3.49223e-11
2.75606e-13
3.49053e-11
3.24689e-13
3.48854e-11
3.78788e-13
3.48622e-11
4.38727e-13
3.48354e-11
5.05422e-13
3.48046e-11
5.79883e-13
3.47691e-11
6.63235e-13
3.47284e-11
7.5673e-13
3.46818e-11
8.61764e-13
3.46284e-11
9.79894e-13
3.45674e-11
1.11286e-12
3.44975e-11
1.26259e-12
3.44175e-11
1.43126e-12
3.43259e-11
1.62126e-12
3.4221e-11
1.83526e-12
3.41008e-11
2.07622e-12
3.39628e-11
2.3474e-12
3.38044e-11
2.65241e-12
3.36223e-11
2.99512e-12
3.34129e-11
3.37993e-12
3.31715e-11
3.81119e-12
3.28935e-11
4.2944e-12
3.25722e-11
4.83365e-12
3.22017e-11
5.43648e-12
3.17723e-11
6.10449e-12
3.12769e-11
6.85009e-12
3.07015e-11
7.66626e-12
3.00376e-11
8.57793e-12
2.92671e-11
9.55512e-12
2.83774e-11
1.06518e-11
2.7351e-11
1.17891e-11
2.61643e-11
1.30731e-11
2.48108e-11
1.43528e-11
2.32535e-11
1.57788e-11
2.14884e-11
1.7178e-11
1.95054e-11
1.86267e-11
1.72919e-11
2.00309e-11
1.48532e-11
2.13844e-11
1.21945e-11
2.26205e-11
9.34089e-12
2.36976e-11
6.32445e-12
2.45598e-11
3.19259e-12
2.51643e-11
2.54756e-11
3.50068e-11
1.65546e-14
3.5005e-11
4.99214e-14
3.5002e-11
8.40654e-14
3.49978e-11
1.19518e-13
3.49921e-11
1.5683e-13
3.49851e-11
1.96581e-13
3.49765e-11
2.39388e-13
3.49662e-11
2.85915e-13
3.4954e-11
3.36882e-13
3.49397e-11
3.93076e-13
3.49231e-11
4.55362e-13
3.49038e-11
5.24699e-13
3.48815e-11
6.02149e-13
3.48558e-11
6.88897e-13
3.48263e-11
7.86263e-13
3.47923e-11
8.95723e-13
3.47533e-11
1.01893e-12
3.47084e-11
1.15773e-12
3.46568e-11
1.3142e-12
3.45974e-11
1.49065e-12
3.4529e-11
1.68968e-12
3.445e-11
1.91416e-12
3.43589e-11
2.16733e-12
3.42535e-11
2.45275e-12
3.41315e-11
2.77444e-12
3.39898e-11
3.13671e-12
3.38252e-11
3.54453e-12
3.36333e-11
4.00285e-12
3.34098e-11
4.51805e-12
3.31479e-11
5.09499e-12
3.28419e-11
5.74267e-12
3.24818e-11
6.46329e-12
3.20603e-11
7.27214e-12
3.15626e-11
8.16139e-12
3.09786e-11
9.16251e-12
3.02899e-11
1.02398e-11
2.94789e-11
1.14621e-11
2.85294e-11
1.27332e-11
2.74105e-11
1.41882e-11
2.61135e-11
1.56436e-11
2.46034e-11
1.72809e-11
2.28544e-11
1.89182e-11
2.085e-11
2.06238e-11
1.85739e-11
2.22997e-11
1.60256e-11
2.39276e-11
1.32104e-11
2.54308e-11
1.01531e-11
2.67519e-11
6.89209e-12
2.78183e-11
3.48469e-12
2.85703e-11
2.89591e-11
3.50426e-11
1.68955e-14
3.50416e-11
5.09502e-14
3.50398e-11
8.58005e-14
3.50374e-11
1.2199e-13
3.50341e-11
1.60084e-13
3.503e-11
2.00677e-13
3.5025e-11
2.44401e-13
3.5019e-11
2.91938e-13
3.50118e-11
3.44028e-13
3.50034e-11
4.01481e-13
3.49936e-11
4.65189e-13
3.49822e-11
5.36143e-13
3.49689e-11
6.1544e-13
3.49534e-11
7.04309e-13
3.49356e-11
8.04121e-13
3.49149e-11
9.16414e-13
3.48909e-11
1.04292e-12
3.48631e-11
1.18556e-12
3.48307e-11
1.34653e-12
3.47931e-11
1.52827e-12
3.47492e-11
1.73353e-12
3.4698e-11
1.96539e-12
3.4638e-11
2.22732e-12
3.45675e-11
2.52318e-12
3.44847e-11
2.85734e-12
3.43868e-11
3.23453e-12
3.42711e-11
3.6603e-12
3.41336e-11
4.14022e-12
3.39705e-11
4.68154e-12
3.3775e-11
5.28997e-12
3.35429e-11
5.97606e-12
3.32622e-11
6.74267e-12
3.29289e-11
7.60865e-12
3.25226e-11
8.56442e-12
3.20407e-11
9.65209e-12
3.14513e-11
1.08221e-11
3.0749e-11
1.21802e-11
2.99004e-11
1.35696e-11
2.88689e-11
1.52454e-11
2.76684e-11
1.68312e-11
2.61869e-11
1.87906e-11
2.444e-11
2.0666e-11
2.24233e-11
2.26593e-11
2.00837e-11
2.46446e-11
1.74248e-11
2.65976e-11
1.44331e-11
2.8428e-11
1.11397e-11
3.00519e-11
7.58567e-12
3.13764e-11
3.84318e-12
3.23167e-11
3.28055e-11
3.50755e-11
1.69815e-14
3.50753e-11
5.12106e-14
3.50748e-11
8.62416e-14
3.50742e-11
1.22623e-13
3.50733e-11
1.60926e-13
3.50723e-11
2.01749e-13
3.50709e-11
2.45731e-13
3.50693e-11
2.93563e-13
3.50673e-11
3.45993e-13
3.5065e-11
4.03843e-13
3.50622e-11
4.68019e-13
3.50588e-11
5.39527e-13
3.50547e-11
6.19486e-13
3.50499e-11
7.09151e-13
3.50441e-11
8.09924e-13
3.50371e-11
9.23385e-13
3.50287e-11
1.05131e-12
3.50186e-11
1.1957e-12
3.50063e-11
1.35881e-12
3.49914e-11
1.54318e-12
3.49732e-11
1.75171e-12
3.4951e-11
1.98761e-12
3.49237e-11
2.25457e-12
3.48902e-11
2.55669e-12
3.48488e-11
2.89866e-12
3.47976e-11
3.28564e-12
3.47343e-11
3.72364e-12
3.46553e-11
4.21893e-12
3.45575e-11
4.77951e-12
3.44345e-11
5.41214e-12
3.42825e-11
6.12862e-12
3.40898e-11
6.93335e-12
3.38521e-11
7.84743e-12
3.35499e-11
8.86273e-12
3.31763e-11
1.00269e-11
3.27043e-11
1.12878e-11
3.21149e-11
1.27687e-11
3.13871e-11
1.42897e-11
3.04644e-11
1.61591e-11
2.93636e-11
1.79252e-11
2.80174e-11
2.0116e-11
2.63524e-11
2.23125e-11
2.4344e-11
2.46505e-11
2.19538e-11
2.70199e-11
1.91658e-11
2.93741e-11
1.59703e-11
3.16131e-11
1.2388e-11
3.36273e-11
8.46887e-12
3.52905e-11
4.30107e-12
3.64816e-11
3.71044e-11
3.5105e-11
1.68107e-14
3.51055e-11
5.06961e-14
3.51064e-11
8.5378e-14
3.51076e-11
1.21401e-13
3.51092e-11
1.59332e-13
3.51112e-11
1.99767e-13
3.51136e-11
2.43343e-13
3.51164e-11
2.90746e-13
3.51197e-11
3.42723e-13
3.51234e-11
4.00094e-13
3.51277e-11
4.63766e-13
3.51324e-11
5.34746e-13
3.51378e-11
6.14158e-13
3.51437e-11
7.03261e-13
3.51501e-11
8.03472e-13
3.51571e-11
9.16384e-13
3.51646e-11
1.0438e-12
3.51726e-11
1.18775e-12
3.51808e-11
1.35054e-12
3.51892e-11
1.53478e-12
3.51975e-11
1.74343e-12
3.52053e-11
1.97985e-12
3.5212e-11
2.24785e-12
3.52169e-11
2.55175e-12
3.52191e-11
2.89649e-12
3.52171e-11
3.28759e-12
3.52095e-11
3.73149e-12
3.51931e-11
4.23509e-12
3.51662e-11
4.80702e-12
3.51222e-11
5.4553e-12
3.50603e-11
6.19246e-12
3.4966e-11
7.02539e-12
3.48428e-11
7.97587e-12
3.4659e-11
9.04028e-12
3.44314e-11
1.0268e-11
3.40946e-11
1.16094e-11
3.36858e-11
1.32079e-11
3.31084e-11
1.48363e-11
3.23409e-11
1.69838e-11
3.14937e-11
1.87312e-11
3.01584e-11
2.15147e-11
2.84654e-11
2.40148e-11
2.65196e-11
2.66305e-11
2.4107e-11
2.94464e-11
2.12236e-11
3.22769e-11
1.78116e-11
3.50382e-11
1.39029e-11
3.75482e-11
9.55047e-12
3.9651e-11
4.86561e-12
4.11731e-11
4.19754e-11
3.51413e-11
1.63847e-14
3.51426e-11
4.94121e-14
3.51448e-11
8.32182e-14
3.51478e-11
1.18336e-13
3.51519e-11
1.55319e-13
3.51569e-11
1.94752e-13
3.5163e-11
2.37257e-13
3.51702e-11
2.83509e-13
3.51787e-11
3.3424e-13
3.51885e-11
3.90257e-13
3.51998e-11
4.52452e-13
3.52128e-11
5.21818e-13
3.52275e-11
5.99465e-13
3.52441e-11
6.86639e-13
3.52628e-11
7.84746e-13
3.52838e-11
8.9537e-13
3.53073e-11
1.02031e-12
3.53335e-11
1.16159e-12
3.53625e-11
1.32154e-12
3.53945e-11
1.50278e-12
3.54296e-11
1.70832e-12
3.54679e-11
1.94156e-12
3.55093e-11
2.20643e-12
3.55536e-11
2.50737e-12
3.56007e-11
2.84949e-12
3.56495e-11
3.23862e-12
3.56996e-11
3.68151e-12
3.57486e-11
4.18565e-12
3.57958e-11
4.76014e-12
3.58358e-11
5.41432e-12
3.5868e-11
6.16111e-12
3.58804e-11
7.01049e-12
3.58743e-11
7.98385e-12
3.58248e-11
9.08444e-12
3.57359e-11
1.03598e-11
3.55645e-11
1.17718e-11
3.53035e-11
1.347e-11
3.49122e-11
1.52167e-11
3.42687e-11
1.76135e-11
3.35354e-11
1.94684e-11
3.25969e-11
1.24042e-11
1.00014e-11
3.11852e-11
1.14374e-11
1.39439e-11
2.92873e-11
1.30037e-11
1.54903e-11
2.68609e-11
1.47263e-11
1.71161e-11
2.38468e-11
1.65162e-11
1.87492e-11
2.01938e-11
1.8326e-11
2.03392e-11
1.58858e-11
2.00674e-11
2.17688e-11
1.09789e-11
2.16217e-11
2.2921e-11
5.61451e-12
2.28544e-11
2.36722e-11
2.36506e-11
2.39301e-11
3.51722e-11
1.57092e-14
3.51742e-11
4.73759e-14
3.51776e-11
7.97912e-14
3.51825e-11
1.13468e-13
3.51889e-11
1.48939e-13
3.51969e-11
1.86767e-13
3.52066e-11
2.27552e-13
3.52181e-11
2.71943e-13
3.52317e-11
3.2065e-13
3.52475e-11
3.7445e-13
3.52658e-11
4.34208e-13
3.52867e-11
5.00886e-13
3.53106e-11
5.75563e-13
3.53378e-11
6.59451e-13
3.53686e-11
7.5392e-13
3.54035e-11
8.6052e-13
3.54428e-11
9.81012e-13
3.5487e-11
1.1174e-12
3.55366e-11
1.27196e-12
3.55921e-11
1.4473e-12
3.5654e-11
1.64641e-12
3.57228e-11
1.87271e-12
3.57992e-11
2.13011e-12
3.58834e-11
2.42315e-12
3.59759e-11
2.75701e-12
3.60768e-11
3.13771e-12
3.61863e-11
3.57215e-12
3.63033e-11
4.06838e-12
3.64286e-11
4.63563e-12
3.65572e-11
5.28475e-12
3.66926e-11
6.02804e-12
3.68197e-11
6.8803e-12
3.69526e-11
7.85759e-12
3.70474e-11
8.98067e-12
3.71562e-11
1.0269e-11
3.71495e-11
1.17543e-11
3.72136e-11
1.34524e-11
3.69404e-11
1.54263e-11
3.70259e-11
1.76464e-11
1.85792e-11
2.03078e-11
1.74422e-11
-1.02609e-11
1.07784e-11
1.83417e-11
-1.71511e-11
1.6816e-11
1.17655e-11
-1.66246e-11
1.62057e-11
1.34524e-11
-1.58121e-11
1.5275e-11
1.53084e-11
-1.46931e-11
1.39845e-11
1.72728e-11
-1.31959e-11
1.22853e-11
1.92799e-11
-1.12766e-11
1.01635e-11
2.12117e-11
-8.94627e-12
7.63458e-12
2.29528e-11
-6.22945e-12
4.74819e-12
2.43471e-11
-3.20163e-12
1.61256e-12
2.52464e-11
3.52024e-11
1.47939e-14
3.52052e-11
4.46162e-14
3.52098e-11
7.51454e-14
3.52164e-11
1.06866e-13
3.52251e-11
1.40281e-13
3.52359e-11
1.75924e-13
3.52491e-11
2.14361e-13
3.52648e-11
2.56208e-13
3.52834e-11
3.02136e-13
3.53049e-11
3.52886e-13
3.53299e-11
4.09276e-13
3.53585e-11
4.72224e-13
3.53913e-11
5.42758e-13
3.54288e-11
6.22035e-13
3.54713e-11
7.11367e-13
3.55196e-11
8.12241e-13
3.55743e-11
9.26349e-13
3.56361e-11
1.05562e-12
3.57057e-11
1.20227e-12
3.57842e-11
1.36883e-12
3.58724e-11
1.5582e-12
3.59714e-11
1.77375e-12
3.60822e-11
2.01933e-12
3.62059e-11
2.29943e-12
3.63438e-11
2.61921e-12
3.64966e-11
2.98475e-12
3.66659e-11
3.403e-12
3.68516e-11
3.88232e-12
3.70557e-11
4.43195e-12
3.72755e-11
5.06391e-12
3.75148e-11
5.78993e-12
3.77637e-11
6.62855e-12
3.8032e-11
7.59224e-12
3.8292e-11
8.71423e-12
3.85708e-11
9.99664e-12
3.87954e-11
1.15158e-11
3.90521e-11
1.32101e-11
3.91302e-11
1.53175e-11
3.93618e-11
1.74535e-11
2.02951e-11
2.05852e-11
1.8712e-11
-1.08658e-11
1.11533e-11
2.01613e-11
-1.86494e-11
1.84108e-11
-1.2366e-11
1.25511e-11
-1.82893e-11
1.79592e-11
-1.41599e-11
1.44733e-11
-1.76323e-11
1.71567e-11
-1.61446e-11
1.66237e-11
-1.66151e-11
1.59295e-11
-1.82658e-11
1.89675e-11
-1.51487e-11
1.41827e-11
-2.04378e-11
2.14268e-11
-1.30906e-11
1.18772e-11
-2.25817e-11
2.38054e-11
-1.05194e-11
9.02971e-12
-2.45192e-11
2.60094e-11
-7.40624e-12
5.66811e-12
-2.60616e-11
2.77976e-11
-3.83468e-12
1.93469e-12
-2.70275e-11
2.89281e-11
3.52316e-11
1.36521e-14
3.5235e-11
4.11732e-14
3.52408e-11
6.93483e-14
3.52491e-11
9.86258e-14
3.52599e-11
1.29472e-13
3.52734e-11
1.62379e-13
3.52899e-11
1.97874e-13
3.53096e-11
2.36528e-13
3.53328e-11
2.78963e-13
3.53598e-11
3.25867e-13
3.53911e-11
3.78004e-13
3.54271e-11
4.36227e-13
3.54683e-11
5.01497e-13
3.55155e-11
5.74896e-13
3.55692e-11
6.57651e-13
3.56303e-11
7.5116e-13
3.56996e-11
8.57015e-13
3.57782e-11
9.77039e-13
3.58672e-11
1.11332e-12
3.59677e-11
1.26827e-12
3.60813e-11
1.44466e-12
3.62094e-11
1.6457e-12
3.63536e-11
1.87511e-12
3.65158e-11
2.13724e-12
3.6698e-11
2.43709e-12
3.6902e-11
2.78066e-12
3.71305e-11
3.17474e-12
3.73848e-11
3.6278e-12
3.76685e-11
4.14891e-12
3.79808e-11
4.75074e-12
3.83282e-11
5.44454e-12
3.87027e-11
6.25129e-12
3.91192e-11
7.18145e-12
3.955e-11
8.27572e-12
4.00313e-11
9.52955e-12
4.04899e-11
1.1038e-11
4.10053e-11
1.27272e-11
4.14223e-11
1.48577e-11
4.1849e-11
1.70908e-11
2.19334e-11
2.02243e-11
2.01986e-11
-1.11559e-11
1.12183e-11
2.1951e-11
-2.03568e-11
2.02438e-11
-1.2909e-11
1.30033e-11
-2.02237e-11
2.00184e-11
-1.49422e-11
1.51614e-11
-1.9791e-11
1.94313e-11
-1.72493e-11
1.76442e-11
-1.89714e-11
1.8371e-11
-1.97964e-11
2.04537e-11
-1.7683e-11
1.66111e-11
-2.24163e-11
2.35723e-11
-1.53815e-11
1.40983e-11
-2.51617e-11
2.64845e-11
-1.25958e-11
1.09084e-11
-2.76968e-11
2.93982e-11
-9.01294e-12
6.94e-12
-2.97576e-11
3.18348e-11
-4.71603e-12
2.38593e-12
-3.10529e-11
3.33856e-11
3.52582e-11
1.23007e-14
3.52622e-11
3.7098e-14
3.52691e-11
6.2486e-14
3.52789e-11
8.88696e-14
3.52917e-11
1.1667e-13
3.53077e-11
1.46333e-13
3.53273e-11
1.78335e-13
3.53506e-11
2.13192e-13
3.53781e-11
2.51469e-13
3.54102e-11
2.9379e-13
3.54473e-11
3.40847e-13
3.54902e-11
3.93418e-13
3.55393e-11
4.52375e-13
3.55955e-11
5.18707e-13
3.56596e-11
5.93535e-13
3.57326e-11
6.78136e-13
3.58157e-11
7.73972e-13
3.591e-11
8.82719e-13
3.60171e-11
1.00631e-12
3.61384e-11
1.14696e-12
3.62758e-11
1.30725e-12
3.64314e-11
1.49017e-12
3.66073e-11
1.69921e-12
3.68061e-11
1.93845e-12
3.70306e-11
2.21263e-12
3.72837e-11
2.52746e-12
3.75692e-11
2.88943e-12
3.78899e-11
3.30679e-12
3.8251e-11
3.78826e-12
3.86543e-11
4.34655e-12
3.91076e-11
4.99242e-12
3.96087e-11
5.74786e-12
4.01707e-11
6.62227e-12
4.07811e-11
7.65996e-12
4.14631e-11
8.85391e-12
4.21813e-11
1.03084e-11
4.29743e-11
1.19475e-11
4.37677e-11
1.40418e-11
4.45946e-11
1.62911e-11
2.35697e-11
1.94019e-11
2.18058e-11
-1.11005e-11
1.09541e-11
2.37534e-11
-2.22459e-11
2.22905e-11
-1.3133e-11
1.30832e-11
-2.24192e-11
2.23875e-11
-1.54015e-11
1.54575e-11
-2.23082e-11
2.21474e-11
-1.80662e-11
1.82734e-11
-2.17858e-11
2.14941e-11
-2.12059e-11
2.15778e-11
-1.07301e-11
-1.28808e-11
1.02652e-11
1.30048e-11
-9.30161e-12
-1.49477e-11
8.89548e-12
1.51353e-11
-7.57529e-12
-1.67003e-11
7.03873e-12
1.70857e-11
-5.25192e-12
-1.81122e-11
4.56835e-12
1.86991e-11
-2.37326e-12
1.96612e-11
-1.89169e-11
1.58943e-12
3.52818e-11
1.076e-14
3.52864e-11
3.24518e-14
3.52942e-11
5.46613e-14
3.53054e-11
7.77437e-14
3.532e-11
1.02069e-13
3.53383e-11
1.28026e-13
3.53606e-11
1.56036e-13
3.53872e-11
1.8655e-13
3.54186e-11
2.20066e-13
3.54553e-11
2.57132e-13
3.54978e-11
2.9836e-13
3.55468e-11
3.44432e-13
3.5603e-11
3.96121e-13
3.56675e-11
4.543e-13
3.5741e-11
5.19961e-13
3.5825e-11
5.94239e-13
3.59205e-11
6.78431e-13
3.60292e-11
7.74032e-13
3.61528e-11
8.82762e-13
3.62931e-11
1.00661e-12
3.64525e-11
1.1479e-12
3.66334e-11
1.30933e-12
3.68386e-11
1.49403e-12
3.70713e-11
1.70573e-12
3.73352e-11
1.94876e-12
3.76343e-11
2.22837e-12
3.79734e-11
2.55054e-12
3.83571e-11
2.92298e-12
3.8792e-11
3.35382e-12
3.92828e-11
3.85518e-12
3.98394e-11
4.43733e-12
4.0464e-11
5.1214e-12
4.11726e-11
5.91736e-12
4.19605e-11
6.86721e-12
4.28532e-11
7.96983e-12
4.3832e-11
9.31854e-12
4.4929e-11
1.08679e-11
4.61138e-11
1.28356e-11
4.73834e-11
1.505e-11
2.52356e-11
1.80015e-11
2.35152e-11
-1.06764e-11
1.0323e-11
2.56086e-11
-2.42855e-11
2.45239e-11
-1.29837e-11
1.2741e-11
-2.48547e-11
2.50403e-11
-1.54446e-11
1.52793e-11
-2.51996e-11
2.52505e-11
-1.84014e-11
1.83847e-11
-2.51749e-11
2.49571e-11
-2.18742e-11
2.21367e-11
-1.29766e-11
-1.35746e-11
1.25201e-11
1.37369e-11
-1.15674e-11
-1.61066e-11
1.11461e-11
1.64136e-11
-9.69658e-12
-1.86644e-11
9.09756e-12
1.92118e-11
-6.92573e-12
-2.09151e-11
6.07544e-12
2.17373e-11
-3.19546e-12
2.33732e-11
-2.23401e-11
2.15136e-12
3.53031e-11
9.05344e-15
3.53082e-11
2.7305e-14
3.53169e-11
4.59931e-14
3.53292e-11
6.54169e-14
3.53454e-11
8.58882e-14
3.53657e-11
1.07736e-13
3.53904e-11
1.31315e-13
3.542e-11
1.57006e-13
3.54548e-11
1.85231e-13
3.54955e-11
2.16452e-13
3.55427e-11
2.51186e-13
3.55971e-11
2.90014e-13
3.56597e-11
3.33589e-13
3.57313e-11
3.82653e-13
3.58132e-11
4.3805e-13
3.59068e-11
5.00746e-13
3.60134e-11
5.71847e-13
3.61348e-11
6.52631e-13
3.6273e-11
7.44571e-13
3.64302e-11
8.49378e-13
3.66091e-11
9.69043e-13
3.68126e-11
1.1059e-12
3.7044e-11
1.26266e-12
3.73072e-11
1.44258e-12
3.76066e-11
1.64942e-12
3.79472e-11
1.88779e-12
3.83349e-11
2.16297e-12
3.87759e-11
2.48181e-12
3.92785e-11
2.85158e-12
3.985e-11
3.28316e-12
4.05022e-11
3.78597e-12
4.1243e-11
4.37922e-12
4.20897e-11
5.0727e-12
4.3049e-11
5.90453e-12
4.4146e-11
6.87724e-12
4.53844e-11
8.07339e-12
4.67942e-11
9.46644e-12
4.83793e-11
1.12388e-11
5.01509e-11
1.3292e-11
2.68736e-11
1.59988e-11
2.52612e-11
-9.85661e-12
9.29243e-12
2.74501e-11
-2.64129e-11
2.68857e-11
-1.23992e-11
1.19184e-11
-2.74711e-11
2.79424e-11
-1.49863e-11
1.45276e-11
-2.84228e-11
2.88104e-11
-1.82098e-11
1.78431e-11
-2.91243e-11
2.92887e-11
-2.22062e-11
2.20638e-11
-1.55452e-11
-1.41155e-11
1.51975e-11
1.41874e-11
-1.45386e-11
-1.73579e-11
1.41812e-11
1.76342e-11
-1.28037e-11
-2.10161e-11
1.21647e-11
2.1636e-11
-9.58778e-12
-2.45944e-11
8.50065e-12
2.56789e-11
-4.58892e-12
2.85644e-11
-2.70821e-11
3.106e-12
3.53207e-11
7.20695e-15
3.53263e-11
2.17362e-14
3.53357e-11
3.66134e-14
3.5349e-11
5.20772e-14
3.53665e-11
6.83762e-14
3.53885e-11
8.57733e-14
3.54153e-11
1.0455e-13
3.54473e-11
1.25013e-13
3.5485e-11
1.47496e-13
3.55291e-11
1.72372e-13
3.55802e-11
2.00052e-13
3.56393e-11
2.31002e-13
3.57071e-11
2.65745e-13
3.57849e-11
3.04876e-13
3.58739e-11
3.49073e-13
3.59755e-11
3.99112e-13
3.60915e-11
4.55885e-13
3.62237e-11
5.20419e-13
3.63744e-11
5.93907e-13
3.65461e-11
6.77733e-13
3.67416e-11
7.73511e-13
3.69644e-11
8.83135e-13
3.72183e-11
1.00883e-12
3.75077e-11
1.15323e-12
3.78377e-11
1.31946e-12
3.82142e-11
1.51129e-12
3.86442e-11
1.7331e-12
3.91354e-11
1.99058e-12
3.96975e-11
2.28984e-12
4.03404e-11
2.63998e-12
4.10782e-11
3.04916e-12
4.1923e-11
3.53341e-12
4.28957e-11
4.10216e-12
4.40112e-11
4.78659e-12
4.52995e-11
5.5935e-12
4.67799e-11
6.58771e-12
4.84913e-11
7.76344e-12
5.04653e-11
9.25578e-12
5.27357e-11
1.10333e-11
2.83995e-11
1.33558e-11
2.69654e-11
-8.61939e-12
7.84193e-12
2.91871e-11
-2.85309e-11
2.9273e-11
-1.13105e-11
1.05578e-11
-3.01556e-11
3.09796e-11
-1.39001e-11
1.30828e-11
-3.18631e-11
3.27142e-11
-1.72543e-11
1.64153e-11
-3.35588e-11
3.43298e-11
-2.16342e-11
2.0874e-11
-1.86233e-11
-1.41291e-11
1.84832e-11
1.40073e-11
-1.84738e-11
-1.82251e-11
1.83194e-11
1.83035e-11
-1.75056e-11
-2.34098e-11
1.70257e-11
2.38619e-11
-1.40405e-11
-2.93251e-11
1.27e-11
3.06827e-11
-7.22924e-12
3.63388e-11
-3.4055e-11
4.94921e-12
3.53344e-11
5.24902e-15
3.53403e-11
1.58312e-14
3.53503e-11
2.66671e-14
3.53644e-11
3.79307e-14
3.5383e-11
4.98033e-14
3.54063e-11
6.24768e-14
3.54347e-11
7.61568e-14
3.54686e-11
9.10665e-14
3.55087e-11
1.07451e-13
3.55555e-11
1.2558e-13
3.56098e-11
1.45758e-13
3.56725e-11
1.68322e-13
3.57446e-11
1.93658e-13
3.58273e-11
2.22199e-13
3.59219e-11
2.54444e-13
3.60301e-11
2.90962e-13
3.61536e-11
3.32408e-13
3.62945e-11
3.79538e-13
3.64552e-11
4.3323e-13
3.66384e-11
4.94505e-13
3.68474e-11
5.64554e-13
3.70858e-11
6.44782e-13
3.73579e-11
7.36836e-13
3.76685e-11
8.42681e-13
3.80234e-11
9.64633e-13
3.84292e-11
1.10553e-12
3.88938e-11
1.26865e-12
3.94261e-11
1.45827e-12
4.00372e-11
1.67903e-12
4.07391e-11
1.93782e-12
4.1548e-11
2.24096e-12
4.24801e-11
2.6006e-12
4.35592e-11
3.02448e-12
4.4808e-11
3.53608e-12
4.62616e-11
4.14266e-12
4.79537e-11
4.89232e-12
4.99345e-11
5.78739e-12
5.22593e-11
6.92606e-12
5.4995e-11
8.30411e-12
2.97052e-11
1.01071e-11
2.85295e-11
-6.96286e-12
5.98629e-12
3.06904e-11
-3.05075e-11
3.15332e-11
-9.66534e-12
8.62869e-12
-3.27327e-11
3.39506e-11
-1.2071e-11
1.08564e-11
-3.52962e-11
3.6707e-11
-1.53026e-11
1.38992e-11
-3.82178e-11
3.97952e-11
-1.97283e-11
1.81571e-11
-2.20877e-11
-1.31824e-11
2.22874e-11
1.2749e-11
-2.34193e-11
-1.79889e-11
2.37005e-11
1.76382e-11
-2.42945e-11
-2.51162e-11
2.51255e-11
1.30525e-11