/*--------------------------------*- C++ -*----------------------------------*\
| =========                 |                                                 |
| \\      /  F ield         | foam-extend: Open Source CFD                    |
|  \\    /   O peration     | Version:     4.0                                |
|   \\  /    A nd           | Web:         http://www.foam-extend.org         |
|    \\/     M anipulation  |                                                 |
\*---------------------------------------------------------------------------*/
FoamFile
{
    version     2.0;
    format      ascii;
    class       volVectorField;
    location    "0.0003";
    object      U;
}
// * * * * * * * * * * * * * * * * * * * * * * * * * * * * * * * * * * * * * //

dimensions      [0 1 -1 0 0 0 0];

internalField   nonuniform List<vector> 
28770
(
(0.00118529 3.45802e-08 0)
(0.00118515 1.04269e-07 0)
(0.00118487 1.75548e-07 0)
(0.00118443 2.49505e-07 0)
(0.00118385 3.27263e-07 0)
(0.0011831 4.09998e-07 0)
(0.00118218 4.98957e-07 0)
(0.00118107 5.9547e-07 0)
(0.00117976 7.00975e-07 0)
(0.00117822 8.17025e-07 0)
(0.00117643 9.45318e-07 0)
(0.00117437 1.08771e-06 0)
(0.001172 1.24623e-06 0)
(0.0011693 1.42313e-06 0)
(0.00116621 1.62085e-06 0)
(0.0011627 1.8421e-06 0)
(0.00115871 2.08984e-06 0)
(0.00115419 2.36731e-06 0)
(0.00114907 2.67806e-06 0)
(0.00114328 3.02593e-06 0)
(0.00113675 3.41511e-06 0)
(0.00112938 3.85007e-06 0)
(0.00112107 4.3356e-06 0)
(0.00111172 4.87678e-06 0)
(0.00110121 5.47891e-06 0)
(0.0010894 6.14747e-06 0)
(0.00107616 6.88804e-06 0)
(0.00106134 7.70606e-06 0)
(0.00104476 8.60699e-06 0)
(0.00102626 9.5954e-06 0)
(0.00100565 1.06761e-05 0)
(0.000982741 1.18512e-05 0)
(0.00095733 1.31242e-05 0)
(0.000929223 1.44925e-05 0)
(0.000898216 1.59577e-05 0)
(0.000864127 1.75093e-05 0)
(0.000826768 1.91462e-05 0)
(0.000785991 2.08467e-05 0)
(0.000741661 2.26057e-05 0)
(0.000693693 2.43892e-05 0)
(0.000642043 2.61853e-05 0)
(0.000586722 2.79505e-05 0)
(0.000527818 2.96627e-05 0)
(0.000465476 3.12754e-05 0)
(0.000399939 3.27574e-05 0)
(0.000331511 3.40648e-05 0)
(0.000260593 3.51641e-05 0)
(0.000187644 3.60202e-05 0)
(0.000113201 3.66074e-05 0)
(3.78365e-05 3.69059e-05 0)
(0.00118543 1.03227e-07 0)
(0.00118529 3.11259e-07 0)
(0.00118501 5.24043e-07 0)
(0.00118458 7.44821e-07 0)
(0.00118401 9.76951e-07 0)
(0.00118327 1.22394e-06 0)
(0.00118236 1.48953e-06 0)
(0.00118127 1.77767e-06 0)
(0.00117997 2.09267e-06 0)
(0.00117846 2.43918e-06 0)
(0.0011767 2.82226e-06 0)
(0.00117466 3.24745e-06 0)
(0.00117233 3.72086e-06 0)
(0.00116966 4.24916e-06 0)
(0.00116662 4.8397e-06 0)
(0.00116316 5.50057e-06 0)
(0.00115922 6.24064e-06 0)
(0.00115477 7.06963e-06 0)
(0.00114972 7.99815e-06 0)
(0.00114401 9.03774e-06 0)
(0.00113756 1.02009e-05 0)
(0.00113028 1.15012e-05 0)
(0.00112208 1.29529e-05 0)
(0.00111284 1.45713e-05 0)
(0.00110245 1.63724e-05 0)
(0.00109078 1.83727e-05 0)
(0.00107769 2.05891e-05 0)
(0.00106302 2.3038e-05 0)
(0.00104661 2.5736e-05 0)
(0.00102829 2.8697e-05 0)
(0.00100786 3.19357e-05 0)
(0.000985138 3.54587e-05 0)
(0.000959916 3.92772e-05 0)
(0.000931998 4.33833e-05 0)
(0.00090117 4.77828e-05 0)
(0.000867249 5.24437e-05 0)
(0.000830036 5.73643e-05 0)
(0.000789379 6.24791e-05 0)
(0.00074513 6.7774e-05 0)
(0.000697198 7.31476e-05 0)
(0.00064553 7.85627e-05 0)
(0.000590127 8.38913e-05 0)
(0.000531074 8.90638e-05 0)
(0.000468507 9.39406e-05 0)
(0.00040267 9.84254e-05 0)
(0.000333868 0.000102384 0)
(0.000262507 0.000105715 0)
(0.000189058 0.00010831 0)
(0.000114068 0.000110091 0)
(3.81287e-05 0.000110996 0)
(0.0011857 1.70353e-07 0)
(0.00118556 5.13662e-07 0)
(0.00118529 8.6482e-07 0)
(0.00118488 1.22918e-06 0)
(0.00118432 1.61229e-06 0)
(0.0011836 2.01995e-06 0)
(0.00118272 2.45832e-06 0)
(0.00118166 2.93396e-06 0)
(0.00118041 3.45398e-06 0)
(0.00117893 4.02605e-06 0)
(0.00117722 4.65856e-06 0)
(0.00117525 5.36071e-06 0)
(0.00117298 6.14255e-06 0)
(0.00117039 7.01517e-06 0)
(0.00116744 7.99077e-06 0)
(0.00116407 9.08274e-06 0)
(0.00116025 1.03058e-05 0)
(0.00115591 1.16761e-05 0)
(0.001151 1.32113e-05 0)
(0.00114544 1.49306e-05 0)
(0.00113916 1.68549e-05 0)
(0.00113207 1.90067e-05 0)
(0.00112408 2.141e-05 0)
(0.00111507 2.40905e-05 0)
(0.00110493 2.70749e-05 0)
(0.00109353 3.0391e-05 0)
(0.00108073 3.40675e-05 0)
(0.00106638 3.81322e-05 0)
(0.0010503 4.26138e-05 0)
(0.00103233 4.75356e-05 0)
(0.00101227 5.29241e-05 0)
(0.000989929 5.87905e-05 0)
(0.000965089 6.51562e-05 0)
(0.000937552 7.20075e-05 0)
(0.000907088 7.93596e-05 0)
(0.000873509 8.71545e-05 0)
(0.000836594 9.54003e-05 0)
(0.000796184 0.000103976 0)
(0.000752107 0.000112876 0)
(0.000704257 0.000121909 0)
(0.000652563 0.000131037 0)
(0.000597004 0.00014002 0)
(0.000537658 0.00014876 0)
(0.000474643 0.000157006 0)
(0.000408207 0.000164602 0)
(0.000338649 0.000171313 0)
(0.000266395 0.000176967 0)
(0.000191929 0.000181374 0)
(0.00011583 0.000184401 0)
(3.87226e-05 0.00018594 0)
(0.0011861 2.34968e-07 0)
(0.00118597 7.085e-07 0)
(0.00118571 1.19287e-06 0)
(0.00118532 1.69547e-06 0)
(0.00118478 2.22396e-06 0)
(0.0011841 2.78637e-06 0)
(0.00118326 3.39118e-06 0)
(0.00118224 4.0475e-06 0)
(0.00118104 4.76511e-06 0)
(0.00117964 5.55468e-06 0)
(0.001178 6.4278e-06 0)
(0.00117612 7.39718e-06 0)
(0.00117395 8.47681e-06 0)
(0.00117147 9.68205e-06 0)
(0.00116864 1.10298e-05 0)
(0.00116542 1.25387e-05 0)
(0.00116176 1.42293e-05 0)
(0.00115761 1.6124e-05 0)
(0.0011529 1.82475e-05 0)
(0.00114757 2.06265e-05 0)
(0.00114155 2.32905e-05 0)
(0.00113474 2.62708e-05 0)
(0.00112705 2.96014e-05 0)
(0.00111839 3.33182e-05 0)
(0.00110862 3.74595e-05 0)
(0.00109763 4.20645e-05 0)
(0.00108527 4.71743e-05 0)
(0.00107139 5.28288e-05 0)
(0.00105582 5.90697e-05 0)
(0.00103838 6.59311e-05 0)
(0.00101888 7.34528e-05 0)
(0.000997115 8.16514e-05 0)
(0.000972858 9.05626e-05 0)
(0.000945905 0.000100165 0)
(0.000916002 0.000110492 0)
(0.000882956 0.000121454 0)
(0.000846507 0.00013308 0)
(0.00080649 0.000145187 0)
(0.00076269 0.000157787 0)
(0.000714981 0.000170599 0)
(0.000663264 0.000183582 0)
(0.000607481 0.000196387 0)
(0.000547706 0.000208877 0)
(0.000484018 0.000220687 0)
(0.000416679 0.000231591 0)
(0.000345975 0.000241242 0)
(0.000272359 0.000249387 0)
(0.000196338 0.000255745 0)
(0.000118539 0.000260116 0)
(3.96356e-05 0.000262339 0)
(0.00118662 2.96109e-07 0)
(0.0011865 8.92864e-07 0)
(0.00118626 1.5033e-06 0)
(0.00118589 2.13674e-06 0)
(0.00118539 2.80287e-06 0)
(0.00118475 3.5118e-06 0)
(0.00118396 4.27429e-06 0)
(0.00118301 5.1018e-06 0)
(0.00118188 6.00676e-06 0)
(0.00118056 7.00261e-06 0)
(0.00117903 8.10405e-06 0)
(0.00117726 9.32721e-06 0)
(0.00117522 1.06898e-05 0)
(0.00117289 1.22113e-05 0)
(0.00117023 1.39133e-05 0)
(0.0011672 1.58195e-05 0)
(0.00116376 1.79559e-05 0)
(0.00115984 2.03513e-05 0)
(0.00115541 2.30372e-05 0)
(0.00115038 2.6048e-05 0)
(0.00114469 2.94213e-05 0)
(0.00113825 3.31977e-05 0)
(0.00113098 3.7421e-05 0)
(0.00112276 4.2138e-05 0)
(0.00111349 4.73984e-05 0)
(0.00110304 5.32538e-05 0)
(0.00109127 5.97586e-05 0)
(0.00107802 6.69653e-05 0)
(0.00106313 7.49309e-05 0)
(0.00104641 8.37011e-05 0)
(0.00102766 9.33328e-05 0)
(0.00100668 0.000103848 0)
(0.000983217 0.000115305 0)
(0.000957066 0.000127671 0)
(0.000927933 0.000141012 0)
(0.000895626 0.000155192 0)
(0.000859833 0.000170298 0)
(0.000820377 0.000186037 0)
(0.00077699 0.000202513 0)
(0.000729514 0.000219259 0)
(0.000677813 0.000236336 0)
(0.000621773 0.000253175 0)
(0.000561452 0.000269686 0)
(0.000496883 0.000285312 0)
(0.000428333 0.000299797 0)
(0.000356074 0.00031264 0)
(0.000280596 0.000323508 0)
(0.000202434 0.000332006 0)
(0.000122287 0.000337857 0)
(4.08998e-05 0.000340836 0)
(0.00118726 3.5287e-07 0)
(0.00118715 1.06403e-06 0)
(0.00118693 1.79151e-06 0)
(0.00118659 2.54647e-06 0)
(0.00118613 3.34045e-06 0)
(0.00118554 4.18556e-06 0)
(0.00118481 5.09462e-06 0)
(0.00118394 6.08138e-06 0)
(0.0011829 7.16068e-06 0)
(0.00118169 8.34864e-06 0)
(0.00118028 9.66288e-06 0)
(0.00117865 1.11227e-05 0)
(0.00117678 1.27495e-05 0)
(0.00117463 1.45666e-05 0)
(0.00117218 1.66e-05 0)
(0.00116938 1.88782e-05 0)
(0.0011662 2.14329e-05 0)
(0.00116259 2.42987e-05 0)
(0.00115848 2.7514e-05 0)
(0.00115383 3.11205e-05 0)
(0.00114855 3.51642e-05 0)
(0.00114257 3.96947e-05 0)
(0.00113581 4.4766e-05 0)
(0.00112816 5.04358e-05 0)
(0.0011195 5.67659e-05 0)
(0.00110973 6.38206e-05 0)
(0.00109869 7.16685e-05 0)
(0.00108624 8.03764e-05 0)
(0.00107221 9.00178e-05 0)
(0.0010564 0.000100652 0)
(0.00103861 0.000112356 0)
(0.00101863 0.000125158 0)
(0.000996184 0.000139146 0)
(0.000971076 0.000154274 0)
(0.000942949 0.000170652 0)
(0.000911631 0.000188098 0)
(0.000876709 0.000206761 0)
(0.000838033 0.000226255 0)
(0.000795219 0.000246751 0)
(0.000748099 0.000267657 0)
(0.000696473 0.000289064 0)
(0.000640136 0.000310272 0)
(0.000579173 0.00033115 0)
(0.000513501 0.000350995 0)
(0.000443437 0.000369457 0)
(0.000369192 0.000385882 0)
(0.000291322 0.000399824 0)
(0.000210387 0.000410751 0)
(0.000127185 0.000418288 0)
(4.25523e-05 0.00042213 0)
(0.00118801 4.04403e-07 0)
(0.00118791 1.21943e-06 0)
(0.00118771 2.05321e-06 0)
(0.0011874 2.91855e-06 0)
(0.00118699 3.82871e-06 0)
(0.00118647 4.7976e-06 0)
(0.00118581 5.83999e-06 0)
(0.00118503 6.97169e-06 0)
(0.0011841 8.20979e-06 0)
(0.00118301 9.57287e-06 0)
(0.00118174 1.10813e-05 0)
(0.00118028 1.27573e-05 0)
(0.00117859 1.46257e-05 0)
(0.00117666 1.67134e-05 0)
(0.00117445 1.90507e-05 0)
(0.00117193 2.16707e-05 0)
(0.00116906 2.46102e-05 0)
(0.0011658 2.79097e-05 0)
(0.00116209 3.1614e-05 0)
(0.00115787 3.57724e-05 0)
(0.00115308 4.04387e-05 0)
(0.00114765 4.56719e-05 0)
(0.00114149 5.15359e-05 0)
(0.00113451 5.80998e-05 0)
(0.0011266 6.54378e-05 0)
(0.00111763 7.36278e-05 0)
(0.00110748 8.27541e-05 0)
(0.00109599 9.28983e-05 0)
(0.00108298 0.000104154 0)
(0.00106829 0.000116594 0)
(0.00105166 0.000130324 0)
(0.00103291 0.000145378 0)
(0.00101173 0.000161887 0)
(0.000987916 0.00017978 0)
(0.000961053 0.000199259 0)
(0.000930983 0.000220029 0)
(0.000897195 0.000242435 0)
(0.000859534 0.000265804 0)
(0.00081753 0.000290675 0)
(0.000770945 0.000315931 0)
(0.00071954 0.000342161 0)
(0.000662983 0.000368038 0)
(0.000601327 0.000393775 0)
(0.000534392 0.000418244 0)
(0.000462494 0.000441166 0)
(0.000385809 0.000461613 0)
(0.000304947 0.00047905 0)
(0.000220514 0.000492752 0)
(0.00013343 0.000502229 0)
(4.46613e-05 0.000507065 0)
(0.00118885 4.49928e-07 0)
(0.00118876 1.35672e-06 0)
(0.00118859 2.28443e-06 0)
(0.00118833 3.24733e-06 0)
(0.00118797 4.26023e-06 0)
(0.00118751 5.33865e-06 0)
(0.00118694 6.4991e-06 0)
(0.00118626 7.75924e-06 0)
(0.00118545 9.1382e-06 0)
(0.0011845 1.06568e-05 0)
(0.0011834 1.23378e-05 0)
(0.00118212 1.42063e-05 0)
(0.00118065 1.629e-05 0)
(0.00117896 1.86194e-05 0)
(0.00117703 2.12285e-05 0)
(0.00117483 2.41549e-05 0)
(0.00117231 2.74401e-05 0)
(0.00116944 3.11303e-05 0)
(0.00116618 3.52764e-05 0)
(0.00116247 3.99347e-05 0)
(0.00115824 4.51672e-05 0)
(0.00115344 5.10415e-05 0)
(0.00114798 5.76321e-05 0)
(0.00114177 6.50191e-05 0)
(0.00113471 7.32899e-05 0)
(0.00112669 8.25362e-05 0)
(0.00111756 9.2859e-05 0)
(0.0011072 0.000104356 0)
(0.00109541 0.000117144 0)
(0.00108203 0.00013131 0)
(0.00106679 0.000146993 0)
(0.00104953 0.000164233 0)
(0.00102987 0.000183213 0)
(0.00100767 0.000203842 0)
(0.00098236 0.000226407 0)
(0.000953907 0.000250547 0)
(0.00092153 0.000276722 0)
(0.000885269 0.000304152 0)
(0.000844301 0.000333471 0)
(0.000798513 0.000363482 0)
(0.000747495 0.000394724 0)
(0.000690675 0.000425899 0)
(0.000628333 0.000457008 0)
(0.000559905 0.000486842 0)
(0.000485903 0.000514906 0)
(0.000406287 0.000540094 0)
(0.000321812 0.000561659 0)
(0.000233083 0.000578674 0)
(0.000141201 0.000590475 0)
(4.72878e-05 0.000596508 0)
(0.00118978 4.88755e-07 0)
(0.0011897 1.47382e-06 0)
(0.00118956 2.48166e-06 0)
(0.00118934 3.52784e-06 0)
(0.00118904 4.62848e-06 0)
(0.00118866 5.80053e-06 0)
(0.00118818 7.06197e-06 0)
(0.00118761 8.4321e-06 0)
(0.00118694 9.93183e-06 0)
(0.00118614 1.15839e-05 0)
(0.00118522 1.34134e-05 0)
(0.00118415 1.54476e-05 0)
(0.00118291 1.77172e-05 0)
(0.0011815 2.02556e-05 0)
(0.00117987 2.31004e-05 0)
(0.00117802 2.6293e-05 0)
(0.00117589 2.98796e-05 0)
(0.00117347 3.39113e-05 0)
(0.00117071 3.84451e-05 0)
(0.00116756 4.35439e-05 0)
(0.00116396 4.92773e-05 0)
(0.00115986 5.57218e-05 0)
(0.00115518 6.29618e-05 0)
(0.00114984 7.1089e-05 0)
(0.00114375 8.02039e-05 0)
(0.0011368 9.04131e-05 0)
(0.00112885 0.000101835 0)
(0.00111977 0.000114586 0)
(0.00110938 0.000128808 0)
(0.00109751 0.000144605 0)
(0.0010839 0.000162158 0)
(0.00106838 0.000181509 0)
(0.00105051 0.000202929 0)
(0.00103021 0.00022626 0)
(0.00100678 0.000252008 0)
(0.000980249 0.000279525 0)
(0.000949683 0.000309833 0)
(0.0009151 0.000341336 0)
(0.000875623 0.0003759 0)
(0.000830921 0.000410652 0)
(0.000780656 0.000448052 0)
(0.000723969 0.000484725 0)
(0.000661 0.000522058 0)
(0.000591082 0.000557759 0)
(0.000514635 0.000591739 0)
(0.000431588 0.000622347 0)
(0.000342722 0.000648742 0)
(0.000248729 0.000669654 0)
(0.000150892 0.000684217 0)
(5.05689e-05 0.000691679 0)
(0.00119077 5.20288e-07 0)
(0.00119072 1.56893e-06 0)
(0.0011906 2.64188e-06 0)
(0.00119043 3.75576e-06 0)
(0.00119019 4.9278e-06 0)
(0.00118989 6.1761e-06 0)
(0.00118952 7.5199e-06 0)
(0.00118907 8.97987e-06 0)
(0.00118854 1.05784e-05 0)
(0.00118791 1.23399e-05 0)
(0.00118718 1.42912e-05 0)
(0.00118633 1.6462e-05 0)
(0.00118536 1.88848e-05 0)
(0.00118423 2.15963e-05 0)
(0.00118294 2.46367e-05 0)
(0.00118146 2.80511e-05 0)
(0.00117977 3.18897e-05 0)
(0.00117783 3.62083e-05 0)
(0.00117561 4.10693e-05 0)
(0.00117307 4.65416e-05 0)
(0.00117017 5.27023e-05 0)
(0.00116684 5.96361e-05 0)
(0.00116302 6.74372e-05 0)
(0.00115865 7.62085e-05 0)
(0.00115363 8.60641e-05 0)
(0.00114787 9.71252e-05 0)
(0.00114123 0.000109529 0)
(0.00113361 0.000123411 0)
(0.0011248 0.000138938 0)
(0.00111468 0.000156237 0)
(0.00110293 0.000175529 0)
(0.00108946 0.000196872 0)
(0.00107369 0.000220603 0)
(0.00105573 0.000246561 0)
(0.00103452 0.000275347 0)
(0.00101053 0.000306299 0)
(0.000982055 0.000340505 0)
(0.000949961 0.000376456 0)
(0.000912174 0.000415807 0)
(0.000869162 0.000456221 0)
(0.000820025 0.000499268 0)
(0.00076314 0.000542786 0)
(0.000699847 0.000586946 0)
(0.000628134 0.000629933 0)
(0.000549145 0.00067095 0)
(0.000462104 0.000708284 0)
(0.000368134 0.000740638 0)
(0.00026782 0.000766441 0)
(0.000162766 0.000784476 0)
(5.45938e-05 0.000793745 0)
(0.00119182 5.44031e-07 0)
(0.00119178 1.64055e-06 0)
(0.0011917 2.76257e-06 0)
(0.00119158 3.92751e-06 0)
(0.00119141 5.15346e-06 0)
(0.0011912 6.45943e-06 0)
(0.00119093 7.86564e-06 0)
(0.00119061 9.39382e-06 0)
(0.00119023 1.10675e-05 0)
(0.00118978 1.29126e-05 0)
(0.00118926 1.49572e-05 0)
(0.00118865 1.72328e-05 0)
(0.00118794 1.97739e-05 0)
(0.00118713 2.26193e-05 0)
(0.00118619 2.58119e-05 0)
(0.00118512 2.93998e-05 0)
(0.00118388 3.34365e-05 0)
(0.00118246 3.79821e-05 0)
(0.00118083 4.31035e-05 0)
(0.00117895 4.88756e-05 0)
(0.00117678 5.53816e-05 0)
(0.00117429 6.27145e-05 0)
(0.00117141 7.09776e-05 0)
(0.00116808 8.02846e-05 0)
(0.00116423 9.0763e-05 0)
(0.00115977 0.000102549 0)
(0.00115458 0.000115799 0)
(0.00114857 0.000130669 0)
(0.00114152 0.000147355 0)
(0.00113334 0.000166006 0)
(0.00112368 0.000186902 0)
(0.00111251 0.000210094 0)
(0.00109917 0.000236069 0)
(0.00108381 0.000264522 0)
(0.00106528 0.000296513 0)
(0.00104405 0.000330708 0)
(0.00101838 0.000369612 0)
(0.000988833 0.000409484 0)
(0.000953728 0.000455732 0)
(0.000912644 0.000500629 0)
(0.000865418 0.000552647 0)
(0.000809821 0.000602409 0)
(0.000746331 0.000654832 0)
(0.000673337 0.00070546 0)
(0.000591355 0.000754674 0)
(0.000499824 0.000799742 0)
(0.000399668 0.000839196 0)
(0.000291654 0.000870872 0)
(0.000177627 0.00089314 0)
(5.96448e-05 0.000904624 0)
(0.00119291 5.59608e-07 0)
(0.00119289 1.68755e-06 0)
(0.00119284 2.8418e-06 0)
(0.00119277 4.04034e-06 0)
(0.00119267 5.30185e-06 0)
(0.00119255 6.64596e-06 0)
(0.00119239 8.09359e-06 0)
(0.00119221 9.66722e-06 0)
(0.00119198 1.13913e-05 0)
(0.00119172 1.32925e-05 0)
(0.00119141 1.54003e-05 0)
(0.00119105 1.77472e-05 0)
(0.00119063 2.03694e-05 0)
(0.00119015 2.33072e-05 0)
(0.00118958 2.66056e-05 0)
(0.00118893 3.03152e-05 0)
(0.00118817 3.44922e-05 0)
(0.0011873 3.92002e-05 0)
(0.00118628 4.451e-05 0)
(0.00118509 5.05014e-05 0)
(0.00118372 5.72635e-05 0)
(0.00118211 6.48961e-05 0)
(0.00118023 7.35111e-05 0)
(0.00117802 8.32325e-05 0)
(0.00117543 9.42e-05 0)
(0.00117238 0.000106565 0)
(0.00116877 0.000120503 0)
(0.00116451 0.000136188 0)
(0.0011594 0.000153849 0)
(0.0011534 0.00017366 0)
(0.00114609 0.000195943 0)
(0.0011376 0.000220793 0)
(0.00112698 0.000248741 0)
(0.00111491 0.000279571 0)
(0.00109932 0.000314321 0)
(0.0010821 0.000351944 0)
(0.00105919 0.000394532 0)
(0.00103429 0.000439399 0)
(0.00100142 0.000490147 0)
(0.000964057 0.000542281 0)
(0.000919683 0.000599416 0)
(0.000863194 0.000658809 0)
(0.000800749 0.000720092 0)
(0.000725894 0.00078119 0)
(0.000641462 0.000840504 0)
(0.000544864 0.00089565 0)
(0.000437781 0.00094427 0)
(0.000320638 0.000983689 0)
(0.000195815 0.00101155 0)
(6.58389e-05 0.00102599 0)
(0.00119402 5.66757e-07 0)
(0.00119402 1.70913e-06 0)
(0.001194 2.87824e-06 0)
(0.00119399 4.09235e-06 0)
(0.00119396 5.37045e-06 0)
(0.00119393 6.73251e-06 0)
(0.00119389 8.19983e-06 0)
(0.00119384 9.79533e-06 0)
(0.00119378 1.15439e-05 0)
(0.0011937 1.34729e-05 0)
(0.00119362 1.56124e-05 0)
(0.00119351 1.79957e-05 0)
(0.00119339 2.066e-05 0)
(0.00119324 2.36467e-05 0)
(0.00119306 2.70024e-05 0)
(0.00119284 3.07791e-05 0)
(0.00119258 3.50354e-05 0)
(0.00119227 3.98373e-05 0)
(0.00119189 4.52587e-05 0)
(0.00119143 5.13834e-05 0)
(0.00119088 5.83053e-05 0)
(0.0011902 6.61301e-05 0)
(0.00118936 7.49772e-05 0)
(0.00118834 8.49798e-05 0)
(0.00118708 9.6289e-05 0)
(0.00118553 0.00010907 0)
(0.00118359 0.000123517 0)
(0.00118122 0.000139826 0)
(0.00117821 0.000158254 0)
(0.00117456 0.000179005 0)
(0.00116984 0.000202461 0)
(0.00116421 0.000228719 0)
(0.00115672 0.000258502 0)
(0.00114803 0.00029139 0)
(0.00113614 0.000329151 0)
(0.00112259 0.000369532 0)
(0.00110401 0.00041748 0)
(0.00108246 0.00046524 0)
(0.00105447 0.000526213 0)
(0.00101964 0.000579799 0)
(0.00097952 0.000653292 0)
(0.000927984 0.000718925 0)
(0.000866164 0.000790525 0)
(0.000791241 0.000861782 0)
(0.000703431 0.000932671 0)
(0.000601429 0.000999549 0)
(0.000485875 0.00105919 0)
(0.000357537 0.00110807 0)
(0.000219048 0.0011429 0)
(7.37815e-05 0.00116105 0)
(0.00119514 5.65345e-07 0)
(0.00119515 1.7049e-06 0)
(0.00119517 2.8712e-06 0)
(0.00119521 4.08255e-06 0)
(0.00119526 5.35793e-06 0)
(0.00119532 6.71739e-06 0)
(0.00119539 8.18226e-06 0)
(0.00119548 9.77555e-06 0)
(0.00119558 1.15223e-05 0)
(0.0011957 1.345e-05 0)
(0.00119584 1.55889e-05 0)
(0.00119599 1.79728e-05 0)
(0.00119617 2.06391e-05 0)
(0.00119636 2.363e-05 0)
(0.00119657 2.69925e-05 0)
(0.0011968 3.07799e-05 0)
(0.00119704 3.50518e-05 0)
(0.00119731 3.98759e-05 0)
(0.00119758 4.53284e-05 0)
(0.00119787 5.14956e-05 0)
(0.00119816 5.84751e-05 0)
(0.00119843 6.63773e-05 0)
(0.00119868 7.53274e-05 0)
(0.00119889 8.54664e-05 0)
(0.00119902 9.69551e-05 0)
(0.00119904 0.000109972 0)
(0.00119888 0.000124726 0)
(0.00119852 0.000141435 0)
(0.00119776 0.000160379 0)
(0.00119669 0.000181805 0)
(0.00119477 0.000206114 0)
(0.00119247 0.000233504 0)
(0.00118835 0.000264659 0)
(0.00118409 0.000299458 0)
(0.00117584 0.000339312 0)
(0.00116859 0.000382986 0)
(0.0011529 0.000433764 0)
(0.00114075 0.000487405 0)
(0.00111359 0.000551062 0)
(0.00108849 0.000615213 0)
(0.00105591 0.000687774 0)
(0.000997569 0.000768573 0)
(0.00094063 0.000852839 0)
(0.00086508 0.00093954 0)
(0.00077636 0.0010256 0)
(0.000668747 0.00110799 0)
(0.000544041 0.00118263 0)
(0.000402601 0.00124462 0)
(0.000247688 0.0012892 0)
(8.36106e-05 0.00131258 0)
(0.00119625 5.55366e-07 0)
(0.00119627 1.67484e-06 0)
(0.00119633 2.82066e-06 0)
(0.00119642 4.01087e-06 0)
(0.00119654 5.26421e-06 0)
(0.00119669 6.60043e-06 0)
(0.00119688 8.04061e-06 0)
(0.00119711 9.60751e-06 0)
(0.00119738 1.13259e-05 0)
(0.00119769 1.3223e-05 0)
(0.00119805 1.53288e-05 0)
(0.00119846 1.7677e-05 0)
(0.00119893 2.03047e-05 0)
(0.00119946 2.32541e-05 0)
(0.00120006 2.65722e-05 0)
(0.00120073 3.03124e-05 0)
(0.00120149 3.45347e-05 0)
(0.00120233 3.93073e-05 0)
(0.00120327 4.47075e-05 0)
(0.00120431 5.0823e-05 0)
(0.00120545 5.77535e-05 0)
(0.0012067 6.56124e-05 0)
(0.00120805 7.4529e-05 0)
(0.00120952 8.46502e-05 0)
(0.00121107 9.61442e-05 0)
(0.00121272 0.000109201 0)
(0.0012144 0.00012404 0)
(0.00121613 0.000140904 0)
(0.00121774 0.000160089 0)
(0.00121934 0.000181882 0)
(0.00122046 0.000206717 0)
(0.00122154 0.000234855 0)
(0.0012213 0.000267066 0)
(0.00122112 0.000303227 0)
(0.00121793 0.000345219 0)
(0.00121507 0.000390977 0)
(0.00120625 0.000446762 0)
(0.00119731 0.000501682 0)
(0.00117961 0.00058119 0)
(0.0011535 0.000633538 0)
(0.00112968 0.000746545 0)
(0.00108961 0.000832418 0)
(0.00103357 0.000922531 0)
(0.000960395 0.00102356 0)
(0.000868369 0.00112621 0)
(0.000755187 0.00122789 0)
(0.00061966 0.0013206 0)
(0.000461892 0.00139878 0)
(0.000285585 0.00145568 0)
(9.66668e-05 0.00148579 0)
(0.00119732 5.36945e-07 0)
(0.00119737 1.61931e-06 0)
(0.00119746 2.72722e-06 0)
(0.0011976 3.87819e-06 0)
(0.00119779 5.09039e-06 0)
(0.00119804 6.38301e-06 0)
(0.00119834 7.77654e-06 0)
(0.0011987 9.29309e-06 0)
(0.00119912 1.09568e-05 0)
(0.00119962 1.27942e-05 0)
(0.0012002 1.48347e-05 0)
(0.00120087 1.71109e-05 0)
(0.00120163 1.96596e-05 0)
(0.00120249 2.25219e-05 0)
(0.00120348 2.57441e-05 0)
(0.00120459 2.93789e-05 0)
(0.00120585 3.34858e-05 0)
(0.00120727 3.81322e-05 0)
(0.00120886 4.33952e-05 0)
(0.00121064 4.93626e-05 0)
(0.00121264 5.61344e-05 0)
(0.00121486 6.38251e-05 0)
(0.00121733 7.25661e-05 0)
(0.00122006 8.25075e-05 0)
(0.00122306 9.38221e-05 0)
(0.00122636 0.000106708 0)
(0.00122992 0.000121394 0)
(0.00123382 0.00013814 0)
(0.00123789 0.000157254 0)
(0.00124235 0.000179073 0)
(0.00124664 0.000204024 0)
(0.00125156 0.000232511 0)
(0.0012553 0.000265191 0)
(0.00126061 0.000302402 0)
(0.00126176 0.000345433 0)
(0.00126802 0.000393811 0)
(0.0012613 0.00045124 0)
(0.00127238 0.000512762 0)
(0.0012427 0.000593043 0)
(0.00127821 0.000664353 0)
(0.00125832 0.000741254 0)
(0.00113975 0.000727535 0)
(0.00111368 0.000839101 0)
(0.00106009 0.000960849 0)
(0.000980852 0.00108851 0)
(0.000873471 0.00121865 0)
(0.000736118 0.00134645 0)
(0.000570361 0.00146278 0)
(0.000379022 0.0015576 0)
(0.000168426 0.00162216 0)
(0.00119836 5.10336e-07 0)
(0.00119842 1.53908e-06 0)
(0.00119854 2.59219e-06 0)
(0.00119874 3.68633e-06 0)
(0.00119899 4.83886e-06 0)
(0.00119932 6.06809e-06 0)
(0.00119973 7.39357e-06 0)
(0.00120022 8.83646e-06 0)
(0.0012008 1.04199e-05 0)
(0.00120148 1.21692e-05 0)
(0.00120227 1.41126e-05 0)
(0.00120318 1.62815e-05 0)
(0.00120422 1.87113e-05 0)
(0.00120542 2.14416e-05 0)
(0.00120677 2.45172e-05 0)
(0.00120831 2.79891e-05 0)
(0.00121006 3.1915e-05 0)
(0.00121204 3.63609e-05 0)
(0.00121427 4.14019e-05 0)
(0.00121678 4.71241e-05 0)
(0.00121961 5.36263e-05 0)
(0.00122279 6.10219e-05 0)
(0.00122635 6.94416e-05 0)
(0.00123033 7.9036e-05 0)
(0.00123477 8.99789e-05 0)
(0.00123972 0.000102473 0)
(0.00124518 0.00011675 0)
(0.00125124 0.000133085 0)
(0.00125782 0.000151788 0)
(0.00126514 0.000173244 0)
(0.00127278 0.000197846 0)
(0.00128143 0.000226176 0)
(0.00128973 0.000258648 0)
(0.0012997 0.00029631 0)
(0.00130744 0.000339165 0)
(0.00131868 0.000389807 0)
(0.00132273 0.000445586 0)
(0.00133616 0.000515656 0)
(0.00132804 0.000583387 0)
(0.00135192 0.000689501 0)
(0.00139674 0.000752901 0)
(0.00124591 0.000807604 0)
(0.00122937 0.000933431 0)
(0.00118485 0.00107234 0)
(0.0011111 0.00122091 0)
(0.00100477 0.00137304 0)
(0.000856062 0.00152911 0)
(0.00067116 0.00167163 0)
(0.000450091 0.0017862 0)
(0.000200429 0.00185963 0)
(0.00119933 4.75925e-07 0)
(0.00119941 1.43533e-06 0)
(0.00119956 2.4175e-06 0)
(0.0011998 3.43806e-06 0)
(0.00120013 4.51323e-06 0)
(0.00120054 5.66015e-06 0)
(0.00120105 6.89716e-06 0)
(0.00120166 8.24407e-06 0)
(0.00120239 9.72257e-06 0)
(0.00120324 1.13565e-05 0)
(0.00120423 1.31725e-05 0)
(0.00120537 1.52001e-05 0)
(0.00120668 1.74725e-05 0)
(0.00120818 2.00274e-05 0)
(0.00120989 2.29072e-05 0)
(0.00121184 2.61603e-05 0)
(0.00121405 2.98416e-05 0)
(0.00121656 3.4014e-05 0)
(0.0012194 3.87496e-05 0)
(0.00122261 4.41311e-05 0)
(0.00122625 5.02539e-05 0)
(0.00123035 5.72279e-05 0)
(0.00123496 6.51803e-05 0)
(0.00124017 7.4259e-05 0)
(0.00124601 8.46352e-05 0)
(0.00125257 9.65108e-05 0)
(0.0012599 0.000110117 0)
(0.00126813 0.000125736 0)
(0.00127721 0.000143676 0)
(0.00128745 0.00016435 0)
(0.00129847 0.00018815 0)
(0.0013111 0.000215727 0)
(0.00132397 0.000247501 0)
(0.00133945 0.000284639 0)
(0.00135331 0.000327277 0)
(0.00137222 0.000377913 0)
(0.00138453 0.000435086 0)
(0.00140731 0.000505512 0)
(0.00141292 0.000580179 0)
(0.00143636 0.000682849 0)
(0.00152184 0.000753256 0)
(0.00136773 0.000855324 0)
(0.00136499 0.000995962 0)
(0.00133401 0.00115575 0)
(0.00127139 0.00133144 0)
(0.0011777 0.00150497 0)
(0.00101026 0.00170996 0)
(0.00080567 0.00189661 0)
(0.000547574 0.00204754 0)
(0.00024474 0.00214294 0)
(0.00120023 4.34215e-07 0)
(0.00120032 1.30955e-06 0)
(0.00120051 2.20572e-06 0)
(0.00120079 3.13699e-06 0)
(0.00120117 4.11823e-06 0)
(0.00120166 5.16512e-06 0)
(0.00120226 6.29447e-06 0)
(0.00120299 7.52445e-06 0)
(0.00120385 8.87496e-06 0)
(0.00120486 1.03679e-05 0)
(0.00120604 1.20278e-05 0)
(0.00120739 1.38818e-05 0)
(0.00120895 1.59606e-05 0)
(0.00121074 1.8299e-05 0)
(0.00121278 2.09362e-05 0)
(0.0012151 2.39171e-05 0)
(0.00121775 2.72928e-05 0)
(0.00122076 3.11219e-05 0)
(0.00122417 3.54719e-05 0)
(0.00122804 4.04203e-05 0)
(0.00123243 4.60569e-05 0)
(0.0012374 5.24857e-05 0)
(0.00124302 5.98273e-05 0)
(0.00124938 6.82234e-05 0)
(0.00125656 7.78377e-05 0)
(0.00126467 8.88664e-05 0)
(0.00127379 0.000101533 0)
(0.0012841 0.000116117 0)
(0.00129563 0.000132918 0)
(0.00130869 0.000152366 0)
(0.00132309 0.00017482 0)
(0.00133955 0.000201025 0)
(0.00135721 0.000231263 0)
(0.00137781 0.000267076 0)
(0.00139877 0.000308026 0)
(0.00142424 0.000357954 0)
(0.00144767 0.000413394 0)
(0.00147823 0.000485 0)
(0.00150169 0.000559207 0)
(0.00153453 0.000665435 0)
(0.00163981 0.000737554 0)
(0.00150244 0.000872617 0)
(0.00151996 0.00102798 0)
(0.00150916 0.00121202 0)
(0.00145992 0.00143173 0)
(0.00139937 0.0017166 0)
(0.00122901 0.00197513 0)
(0.000983921 0.00222485 0)
(0.000655315 0.00243434 0)
(0.000254812 0.00256214 0)
(0.00120104 3.85833e-07 0)
(0.00120114 1.16365e-06 0)
(0.00120135 1.96002e-06 0)
(0.00120168 2.78765e-06 0)
(0.00120211 3.65979e-06 0)
(0.00120267 4.59043e-06 0)
(0.00120336 5.59455e-06 0)
(0.00120419 6.68837e-06 0)
(0.00120517 7.88967e-06 0)
(0.00120633 9.21807e-06 0)
(0.00120767 1.06954e-05 0)
(0.00120922 1.23461e-05 0)
(0.001211 1.41978e-05 0)
(0.00121305 1.62815e-05 0)
(0.00121539 1.86328e-05 0)
(0.00121806 2.1292e-05 0)
(0.0012211 2.43054e-05 0)
(0.00122457 2.7726e-05 0)
(0.0012285 3.16151e-05 0)
(0.00123298 3.60435e-05 0)
(0.00123806 4.1093e-05 0)
(0.00124383 4.68592e-05 0)
(0.00125037 5.34534e-05 0)
(0.0012578 6.10065e-05 0)
(0.00126622 6.96711e-05 0)
(0.00127577 7.96311e-05 0)
(0.00128658 9.10965e-05 0)
(0.00129886 0.000104335 0)
(0.0013127 0.000119632 0)
(0.00132847 0.000137404 0)
(0.00134612 0.000158009 0)
(0.00136637 0.000182166 0)
(0.00138865 0.000210222 0)
(0.00141462 0.000243588 0)
(0.00144229 0.000282235 0)
(0.0014754 0.000329272 0)
(0.00150893 0.000383108 0)
(0.00155009 0.000451123 0)
(0.0015896 0.000526869 0)
(0.00163652 0.000628025 0)
(0.00175901 0.000700519 0)
(0.00164872 0.000859351 0)
(0.00169376 0.00102626 0)
(0.00171545 0.00122907 0)
(0.00170516 0.00147127 0)
(0.00168957 0.00182226 0)
(0.00154027 0.00216395 0)
(0.00127921 0.00251991 0)
(0.000884667 0.00283846 0)
(0.000362271 0.00304333 0)
(0.00120175 3.31502e-07 0)
(0.00120186 9.99801e-07 0)
(0.0012021 1.68407e-06 0)
(0.00120245 2.39526e-06 0)
(0.00120294 3.14477e-06 0)
(0.00120355 3.94466e-06 0)
(0.00120432 4.80784e-06 0)
(0.00120524 5.74831e-06 0)
(0.00120633 6.78141e-06 0)
(0.00120761 7.92409e-06 0)
(0.0012091 9.19523e-06 0)
(0.00121082 1.0616e-05 0)
(0.0012128 1.22103e-05 0)
(0.00121508 1.40051e-05 0)
(0.00121768 1.60313e-05 0)
(0.00122066 1.83239e-05 0)
(0.00122405 2.09234e-05 0)
(0.00122791 2.38761e-05 0)
(0.00123232 2.72356e-05 0)
(0.00123733 3.10642e-05 0)
(0.00124302 3.54339e-05 0)
(0.0012495 4.04291e-05 0)
(0.00125688 4.61485e-05 0)
(0.00126526 5.27088e-05 0)
(0.00127479 6.02464e-05 0)
(0.00128565 6.89268e-05 0)
(0.00129798 7.89395e-05 0)
(0.00131204 9.05295e-05 0)
(0.00132801 0.000103956 0)
(0.00134626 0.000119608 0)
(0.00136692 0.000137813 0)
(0.00139067 0.000159261 0)
(0.00141735 0.000184268 0)
(0.00144832 0.000214226 0)
(0.00148267 0.000249087 0)
(0.00152301 0.000291964 0)
(0.00156698 0.000341419 0)
(0.00161899 0.000404582 0)
(0.0016749 0.000476466 0)
(0.00173961 0.000572075 0)
(0.00187475 0.000638332 0)
(0.00180229 0.000813774 0)
(0.00188201 0.00098719 0)
(0.00194743 0.00120575 0)
(0.00199017 0.00148053 0)
(0.00204344 0.00188691 0)
(0.00195014 0.00233287 0)
(0.00170265 0.00284158 0)
(0.00123467 0.00334734 0)
(0.000525746 0.00370454 0)
(0.00120234 2.7206e-07 0)
(0.00120247 8.20533e-07 0)
(0.00120272 1.38214e-06 0)
(0.00120311 1.96587e-06 0)
(0.00120363 2.58111e-06 0)
(0.0012043 3.23777e-06 0)
(0.00120512 3.94649e-06 0)
(0.00120612 4.71879e-06 0)
(0.0012073 5.5673e-06 0)
(0.00120869 6.50602e-06 0)
(0.0012103 7.55051e-06 0)
(0.00121217 8.71825e-06 0)
(0.00121432 1.0029e-05 0)
(0.00121679 1.15051e-05 0)
(0.00121962 1.31721e-05 0)
(0.00122285 1.50591e-05 0)
(0.00122654 1.71998e-05 0)
(0.00123075 1.96326e-05 0)
(0.00123554 2.24024e-05 0)
(0.00124101 2.5561e-05 0)
(0.00124723 2.9169e-05 0)
(0.00125432 3.32973e-05 0)
(0.0012624 3.8029e-05 0)
(0.00127161 4.34629e-05 0)
(0.0012821 4.97147e-05 0)
(0.00129408 5.69259e-05 0)
(0.00130774 6.52588e-05 0)
(0.00132335 7.49247e-05 0)
(0.00134118 8.61494e-05 0)
(0.00136163 9.92701e-05 0)
(0.00138495 0.000114585 0)