/*--------------------------------*- C++ -*----------------------------------*\
| =========                 |                                                 |
| \\      /  F ield         | foam-extend: Open Source CFD                    |
|  \\    /   O peration     | Version:     4.0                                |
|   \\  /    A nd           | Web:         http://www.foam-extend.org         |
|    \\/     M anipulation  |                                                 |
\*---------------------------------------------------------------------------*/
FoamFile
{
    version     2.0;
    format      ascii;
    class       volScalarField;
    location    "4e-05";
    object      k;
}
// * * * * * * * * * * * * * * * * * * * * * * * * * * * * * * * * * * * * * //

dimensions      [0 2 -2 0 0 0 0];

internalField   nonuniform List<scalar> 
28770
(
0.00944709
0.00193132
0.0024189
0.00328161
0.00394766
0.00434315
0.00453576
0.00461356
0.004639
0.00464419
0.00464305
0.00463963
0.00463487
0.00462937
0.00462301
0.00461592
0.00460776
0.00459869
0.00458829
0.0045768
0.00456367
0.00454922
0.00453276
0.00451474
0.0044943
0.00447204
0.0044469
0.00441973
0.00438921
0.00435648
0.00432001
0.00428126
0.00423851
0.00419362
0.00414475
0.00409413
0.00403997
0.00398481
0.00392704
0.00386917
0.00380894
0.00374468
0.0036615
0.00352363
0.00325113
0.00273036
0.00189986
0.00092459
0.000219542
1.48759e-05
0.0484056
0.0480658
0.0697694
0.0953764
0.114654
0.126126
0.131721
0.133983
0.134722
0.134873
0.134838
0.134737
0.134596
0.134434
0.134247
0.134038
0.133797
0.13353
0.133223
0.132885
0.132497
0.132072
0.131586
0.131056
0.130452
0.129798
0.129056
0.128257
0.127357
0.126395
0.125319
0.12418
0.12292
0.121602
0.120162
0.118676
0.117081
0.115463
0.113763
0.112066
0.110295
0.10841
0.105966
0.101922
0.0939315
0.0786862
0.0544198
0.0260261
0.00573864
0.000225084
0.128289
0.261735
0.431053
0.590943
0.709473
0.780285
0.815
0.829131
0.833818
0.834847
0.834695
0.834156
0.83338
0.832481
0.83144
0.83028
0.828943
0.82746
0.825755
0.823874
0.821719
0.819351
0.816647
0.813691
0.810327
0.806671
0.802528
0.798055
0.793014
0.787616
0.781576
0.775168
0.768069
0.760622
0.752477
0.744049
0.734988
0.725764
0.716058
0.706323
0.696101
0.685011
0.670089
0.644254
0.591861
0.491066
0.331462
0.149208
0.028875
0.00103906
0.240393
0.687788
1.19968
1.6618
1.99896
2.19998
2.29906
2.33985
2.35372
2.35711
2.35698
2.35585
2.35408
2.35202
2.34962
2.34695
2.34387
2.34044
2.33651
2.33217
2.32719
2.32171
2.31545
2.30859
2.30078
2.29228
2.28264
2.2722
2.26042
2.24778
2.2336
2.21851
2.20176
2.18412
2.16477
2.14469
2.123
2.10085
2.07742
2.05377
2.02854
2.00004
1.95861
1.88091
1.71708
1.40076
0.9119
0.384845
0.0692646
0.00243927
0.356845
1.17411
2.12569
2.98517
3.61018
3.98308
4.16817
4.24547
4.27256
4.28
4.28059
4.2794
4.27721
4.27455
4.27147
4.26802
4.26405
4.25963
4.25456
4.24894
4.2425
4.23541
4.2273
4.2184
4.20826
4.19719
4.18461
4.17097
4.15553
4.13892
4.12025
4.10032
4.0781
4.05464
4.02878
4.00182
3.97258
3.94257
3.9106
3.87797
3.8421
3.79821
3.72568
3.57418
3.24127
2.59997
1.63953
0.661289
0.11488
0.00401202
0.450445
1.5531
2.86495
4.06796
4.95085
5.48192
5.74845
5.86164
5.90254
5.91479
5.91704
5.91642
5.91475
5.91255
5.90997
5.90708
5.90375
5.90005
5.8958
5.8911
5.8857
5.87975
5.87296
5.86549
5.85698
5.84768
5.83711
5.82564
5.81266
5.79867
5.78293
5.76611
5.74734
5.72749
5.70557
5.6827
5.65782
5.63222
5.6048
5.5763
5.54304
5.4958
5.40191
5.18135
4.67798
3.70869
2.28914
0.898657
0.153387
0.0053358
0.51365
1.78207
3.29923
4.71108
5.76319
6.40383
6.72952
6.8701
6.92221
6.93871
6.94279
6.94301
6.94222
6.94092
6.93936
6.9376
6.93559
6.93334
6.93078
6.92794
6.92471
6.92113
6.91708
6.91262
6.90758
6.90208
6.89587
6.88915
6.8816
6.87351
6.86449
6.85492
6.84433
6.83326
6.82117
6.80871
6.79534
6.78175
6.76729
6.75169
6.73062
6.69067
6.58994
6.32559
5.70202
4.49453
2.74283
1.06206
0.179797
0.00624299
0.549628
1.89702
3.50731
5.01528
6.15242
6.85388
7.21427
7.37171
7.43104
7.45044
7.45582
7.45683
7.45664
7.45609
7.45536
7.45452
7.45358
7.45253
7.45135
7.45004
7.44858
7.44697
7.44518
7.44323
7.44108
7.43877
7.43624
7.43356
7.43066
7.42767
7.4245
7.42132
7.41803
7.41489
7.4118
7.40904
7.40657
7.40458
7.40289
7.40037
7.39245
7.36289
7.26452
6.98127
6.29482
4.95406
3.01078
1.15991
0.195793
0.00679371
0.566415
1.94695
3.59465
5.138
6.30941
7.0392
7.41666
7.5827
7.64584
7.66683
7.67292
7.67438
7.67455
7.67441
7.67415
7.67384
7.67351
7.67314
7.67275
7.67233
7.67189
7.67141
7.67094
7.67045
7.66998
7.66954
7.66917
7.6689
7.66878
7.66887
7.66924
7.67
7.67124
7.67312
7.67578
7.67937
7.68414
7.69005
7.69733
7.70435
7.70651
7.68577
7.59351
7.30714
6.59769
5.19885
3.16209
1.21878
0.205803
0.00714099
0.572886
1.96571
3.62659
5.1818
6.36497
7.10557
7.49014
7.65993
7.72477
7.74647
7.7529
7.75456
7.75492
7.75495
7.75491
7.75484
7.75479
7.75474
7.75472
7.7547
7.75473
7.75479
7.75492
7.75513
7.75545
7.75591
7.75657
7.75746
7.75869
7.76031
7.76245
7.76522
7.76881
7.77337
7.77916
7.78632
7.79527
7.80591
7.81872
7.83187
7.8413
7.82719
7.74252
7.46175
6.75175
5.33659
3.25822
1.26037
0.213273
0.00740278
0.575007
1.97186
3.63696
5.19584
6.38199
7.12608
7.51346
7.68478
7.75032
7.77232
7.77888
7.78063
7.78105
7.78115
7.78119
7.78123
7.78128
7.78136
7.78147
7.78162
7.78183
7.78211
7.78248
7.78296
7.78361
7.78444
7.78552
7.78692
7.78872
7.79102
7.79395
7.79769
7.80239
7.80832
7.81571
7.82488
7.8362
7.84975
7.86615
7.88352
7.89907
7.89112
7.81525
7.54557
6.84785
5.43782
3.34062
1.30018
0.220804
0.00766916
0.575602
1.97362
3.63997
5.20024
6.38614
7.13099
7.51979
7.69181
7.75766
7.77979
7.7864
7.78818
7.78863
7.78875
7.78882
7.78889
7.78898
7.7891
7.78926
7.78947
7.78974
7.79009
7.79055
7.79115
7.79191
7.79289
7.79414
7.79575
7.7978
7.80043
7.80374
7.80798
7.8133
7.82007
7.82849
7.83907
7.85215
7.86807
7.88748
7.90857
7.92939
7.92842
7.86261
7.60813
6.93027
5.53562
3.42754
1.34446
0.229363
0.00797299
0.575726
1.974
3.64072
5.20179
6.3866
7.13129
7.52102
7.69349
7.75953
7.78173
7.78837
7.79016
7.79061
7.79075
7.79082
7.7909
7.791
7.79114
7.79131
7.79154
7.79184
7.79222
7.79271
7.79334
7.79415
7.7952
7.79653
7.79825
7.80043
7.80325
7.80679
7.81139
7.81713
7.82456
7.83375
7.84558
7.86008
7.8783
7.90035
7.92499
7.95313
7.96171
7.90698
7.67262
7.02257
5.65305
3.53781
1.40307
0.240966
0.00838639
0.575715
1.97399
3.64082
5.20243
6.3862
7.13053
7.52091
7.69375
7.75994
7.78219
7.78885
7.79065
7.79111
7.79125
7.79132
7.7914
7.79151
7.79165
7.79183
7.79207
7.79237
7.79276
7.79327
7.79393
7.79476
7.79585
7.79723
7.79903
7.80131
7.80429
7.80803
7.81294
7.81908
7.82713
7.83716
7.85032
7.86657
7.88766
7.91339
7.94373
7.97847
7.99778
7.95828
7.7515
7.13945
5.80454
3.68298
1.48241
0.256941
0.00894268
0.575665
1.97387
3.64073
5.20274
6.3857
7.12968
7.52054
7.6937
7.76003
7.78233
7.78901
7.79081
7.79127
7.79141
7.79149
7.79157
7.79168
7.79182
7.792
7.79225
7.79255
7.79296
7.79347
7.79415
7.795
7.79613
7.79755
7.79943
7.80179
7.80492
7.80885
7.81408
7.82062
7.82935
7.84022
7.85489
7.87279
7.89747
7.92519
7.9628
8.00951
8.04541
8.02472
7.85571
7.2985
6.01946
3.89994
1.61077
0.28421
0.00941527
0.575604
1.97372
3.64059
5.20288
6.38529
7.12898
7.52021
7.69367
7.76013
7.78249
7.78917
7.79099
7.79145
7.79159
7.79166
7.79175
7.79185
7.792
7.79218
7.79243
7.79273
7.79315
7.79367
7.79436
7.79523
7.7964
7.79785
7.7998
7.80226
7.80553
7.80966
7.81517
7.82214
7.83149
7.84329
7.85924
7.87912
7.90631
7.93833
7.9837
8.03199
8.06788
8.09156
8.01125
7.62753
6.60183
4.68047
2.29216
0.574172
0.0287585
0.575541
1.97357
3.64046
5.20297
6.38503
7.12853
7.52006
7.69379
7.76038
7.7828
7.7895
7.79132
7.79178
7.79192
7.792
7.79208
7.79218
7.79233
7.79251
7.79277
7.79307
7.7935
7.79402
7.79473
7.79562
7.79681
7.79831
7.80033
7.80287
7.80628
7.8106
7.8164
7.82381
7.8338
7.84664
7.86398
7.88636
7.91626
7.95515
8.00539
8.0646
8.11611
8.17195
8.14482
7.84872
6.93431
5.08443
2.61298
0.681131
0.0317553
0.575484
1.97345
3.64036
5.20309
6.38497
7.12839
7.5202
7.6942
7.76093
7.78341
7.79013
7.79196
7.79242
7.79256
7.79263
7.79272
7.79282
7.79297
7.79315
7.79341
7.79371
7.79415
7.79467
7.7954
7.7963
7.79752
7.79906
7.80113
7.80376
7.80728
7.81177
7.8178
7.82561
7.83618
7.85003
7.86886
7.89364
7.92716
7.97186
8.03112
8.09984
8.17265
8.2648
8.30065
8.11093
7.33154
5.56499
2.98756
0.811854
0.0388272
0.57544
1.97338
3.64036
5.20331
6.38519
7.12862
7.52071
7.695
7.7619
7.78446
7.79121
7.79305
7.79351
7.79366
7.79373
7.79382
7.79391
7.79407
7.79424
7.7945
7.79481
7.79525
7.79578
7.79652
7.79743
7.79869
7.80026
7.80238
7.80507
7.80866
7.81327
7.81947
7.82762
7.83873
7.8536
7.87396
7.90137
7.93877
7.98976
8.05922
8.13922
8.23348
8.36821
8.48135
8.41628
7.74438
5.96787
3.21517
0.843749
0.0292692
0.575412
1.97336
3.64045
5.20369
6.38576
7.12925
7.52163
7.69626
7.76337
7.78604
7.79283
7.79469
7.79515
7.7953
7.79537
7.79546
7.79556
7.79571
7.79588
7.79615
7.79646
7.7969
7.79744
7.79819
7.79912
7.80039
7.80199
7.80414
7.80686
7.81047
7.81511
7.82136
7.82972
7.84131
7.85711
7.87907
7.90908
7.95085
8.00835
8.08958
8.18162
8.30089
8.48168
8.67771
8.75518
8.35503
6.78179
3.92729
1.12644
0.0420318
0.5754
1.9734
3.64065
5.20423
6.38673
7.13027
7.52287
7.69788
7.76527
7.78808
7.79493
7.79681
7.79728
7.79743
7.7975
7.79759
7.79769
7.79785
7.79802
7.79829
7.7986
7.79905
7.7996
7.80036
7.8013
7.8026
7.80421
7.80637
7.80906
7.8126
7.81714
7.82332
7.83182
7.84379
7.86051
7.88396
7.91663
7.9626
8.02698
8.1199
8.22527
8.37241
8.60233
8.88085
9.10573
9.01343
7.81202
4.9548
1.57183
0.0628455
0.575401
1.97348
3.64092
5.20488
6.38797
7.13155
7.52426
7.69965
7.76736
7.79034
7.79728
7.79918
7.79966
7.79982
7.79988
7.79998
7.80008
7.80024
7.80041
7.80069
7.801
7.80146
7.80201
7.80279
7.80375
7.80505
7.80666
7.80878
7.81138
7.81473
7.81907
7.82513
7.8337
7.84601
7.86356
7.88844
7.92362
7.97364
8.04485
8.14893
8.26732
8.44528
8.72293
9.06835
9.41525
9.6434
9.00268
6.47545
2.38975
0.108248
0.575409
1.97358
3.64121
5.20555
6.3893
7.13288
7.52557
7.70131
7.76935
7.79252
7.79953
7.80147
7.80196
7.80212
7.80218
7.80228
7.80238
7.80254
7.80272
7.803
7.80332
7.80379
7.80435
7.80514
7.80611
7.80741
7.80899
7.81101
7.81343
7.81654
7.82067
7.82658
7.83523
7.84782
7.86613
7.89219
7.92966
7.98306
8.06065
8.17417
8.30468
8.51385
8.83336
9.22845
9.67875
10.206
10.2073
8.66861
3.66653
0.403636
0.57542
1.97366
3.64146
5.20613
6.39049
7.13404
7.52663
7.70266
7.77099
7.79432
7.80141
7.80337
7.80386
7.80403
7.8041
7.8042
7.8043
7.80446
7.80465
7.80493
7.80525
7.80573
7.8063
7.8071
7.80806
7.80935
7.81086
7.81274
7.81496
7.81784
7.82179
7.82761
7.83634
7.84918
7.86808
7.89509
7.93437
7.99042
8.07319
8.19391
8.33387
8.57188
8.92219
9.35575
9.88392
10.6308
11.2332
11.1057
7.31103
1.54198
0.575429
1.97373
3.64165
5.20656
6.3914
7.13486
7.52732
7.70355
7.77209
7.79555
7.80269
7.80467
7.80517
7.80533
7.80541
7.80551
7.80561
7.80578
7.80596
7.80625
7.80658
7.80706
7.80763
7.80843
7.80939
7.81065
7.81209
7.81384
7.81589
7.81862
7.82247
7.82823
7.83702
7.85001
7.86932
7.8969
7.9374
7.99509
8.0813
8.20652
8.35214
8.61319
8.98219
9.44249
10.0208
10.8919
11.8845
12.9833
13.5996
9.95834
0.575433
1.97375
3.64172
5.20673
6.39181
7.13518
7.52752
7.70384
7.77248
7.796
7.80316
7.80515
7.80565
7.80582
7.80589
7.80599
7.80609
7.80626
7.80645
7.80674
7.80707
7.80755
7.80812
7.80893
7.80988
7.81112
7.81252
7.81421
7.81621
7.81889
7.8227
7.82844
7.83725
7.8503
7.86975
7.89755
7.93846
7.99674
8.08412
8.21091
8.35666
8.63243
9.00961
9.48178
10.0816
10.9898
12.1173
13.6697
15.6407
17.714
0.575429
1.97373
3.64165
5.20656
6.3914
7.13486
7.52732
7.70355
7.77209
7.79555
7.80269
7.80467
7.80517
7.80533
7.80541
7.80551
7.80561
7.80578
7.80596
7.80625
7.80658
7.80706
7.80763
7.80843
7.80939
7.81065
7.81209
7.81384
7.81591
7.81863
7.82248
7.82823
7.83702
7.85001
7.86932
7.8969
7.9374
7.99509
8.0813
8.20652
8.34657
8.62607
9.00042
9.46868
10.0614
10.9325
11.9806
13.2694
14.0766
11.6183
0.57542
1.97366
3.64146
5.20613
6.39049
7.13404
7.52663
7.70266
7.77099
7.79432
7.80141
7.80337
7.80386
7.80403
7.8041
7.8042
7.8043
7.80446
7.80465
7.80493
7.80525
7.80573
7.8063
7.8071
7.80806
7.80935
7.81087
7.81276
7.81498
7.81786
7.82181
7.82762
7.83634
7.84917
7.86808
7.89509
7.93437
7.99042
8.07319
8.19391
8.3235
8.59511
8.9559
9.40467
9.96146
10.7127
11.4362
11.6649
9.2963
1.932
0.575409
1.97358
3.64121
5.20555
6.3893
7.13288
7.52557
7.70131
7.76935
7.79252
7.79953
7.80147
7.80196
7.80212
7.80218
7.80228
7.80238
7.80254
7.80272
7.803
7.80332
7.80379
7.80435
7.80514
7.80611
7.80741
7.809
7.81102
7.81345
7.81655
7.82068
7.82658
7.83523
7.84782
7.86613
7.89219
7.92966
7.98306
8.06064
8.17417
8.29028
8.54488
8.8815
9.29695
9.78962
10.3269
10.4868
9.28203
5.03374
0.463411
0.575401
1.97348
3.64092
5.20488
6.38797
7.13155
7.52426
7.69965
7.76736
7.79034
7.79728
7.79918
7.79966
7.79982
7.79988
7.79998
7.80008
7.80024
7.80041
7.80069
7.801
7.80146
7.80201
7.80279
7.80375
7.80505
7.80667
7.80879
7.81139
7.81474
7.81908
7.82513
7.83369
7.846
7.86356
7.88844
7.92362
7.97364
8.04485
8.14893
8.25032
8.48049
8.78032
9.15226
9.55395
9.79315
9.30558
6.96057
2.69606
0.129105
0.5754
1.9734
3.64065
5.20423
6.38673
7.13027
7.52287
7.69788
7.76527
7.78808
7.79493
7.79681
7.79728
7.79743
7.7975
7.79759
7.79769
7.79785
7.79802
7.79829
7.7986
7.79905
7.7996
7.80036
7.8013
7.8026
7.80421
7.80637
7.80907
7.8126
7.81714
7.82332
7.83182
7.84378
7.8605
7.88396
7.91663
7.9626
8.02698
8.1199
8.20658
8.40886
8.66331
8.97794
9.26573
9.17444
8.10077
5.27928
1.7256
0.0705077
0.575412
1.97336
3.64045
5.20369
6.38576
7.12925
7.52163
7.69626
7.76337
7.78604
7.79283
7.79469
7.79515
7.7953
7.79537
7.79546
7.79556
7.79571
7.79588
7.79615
7.79646
7.7969
7.79744
7.79819
7.79912
7.80039
7.80199
7.80414
7.80686
7.81047
7.8151
7.82136
7.82972
7.84131
7.85711
7.87907
7.90908
7.95085
8.00835
8.08958
8.1632
8.33569
8.54115
8.77992
8.9356
8.51919
7.01871
4.14727
1.21618
0.0460502
0.57544
1.97338
3.64036
5.20331
6.38519
7.12862
7.52071
7.695
7.7619
7.78446
7.79121
7.79305
7.79351
7.79366
7.79373
7.79382
7.79391
7.79407
7.79424
7.7945
7.79481
7.79525
7.79578
7.79652
7.79743
7.79869
7.80026
7.80238
7.80507
7.80866
7.81327
7.81947
7.82761
7.83873
7.8536
7.87396
7.90137
7.93877
7.98976
8.05922
8.12112
8.26579
8.4233
8.57736
8.58149
7.88976
6.15212
3.36945
0.90447
0.0321631
0.575484
1.97345
3.64036
5.20309
6.38497
7.12839
7.5202
7.6942
7.76093
7.78341
7.79013
7.79196
7.79242
7.79256
7.79263
7.79272
7.79282
7.79297
7.79315
7.79341
7.79371
7.79415
7.79467
7.7954
7.7963
7.79752
7.79906
7.80113
7.80376
7.80728
7.81177
7.8178
7.82561
7.83618
7.85003
7.86886
7.89364
7.92716
7.97186
8.03112
8.08472
8.20116
8.31466
8.38873
8.25928
7.55884
5.85351
3.22514
0.903013
0.044209
0.575541
1.97357
3.64046
5.20297
6.38503
7.12853
7.52006
7.69379
7.76038
7.7828
7.7895
7.79132
7.79178
7.79192
7.792
7.79208
7.79218
7.79233
7.79251
7.79277
7.79307
7.7935
7.79402
7.79473
7.79562
7.79681
7.79831
7.80033
7.80287
7.80628
7.8106
7.8164
7.82381
7.8338
7.84664
7.86398
7.88636
7.91626
7.95515
8.00539
8.05034
8.14261
8.21637
8.21916
7.97341
7.12225
5.31223
2.78982
0.741792
0.0349889
0.575604
1.97372
3.64059
5.20288
6.38529
7.12898
7.52021
7.69367
7.76013
7.78249
7.78917
7.79099
7.79145
7.79159
7.79166
7.79175
7.79185
7.792
7.79218
7.79243
7.79273
7.79315
7.79367
7.79436
7.79523
7.7964
7.79785
7.7998
7.80226
7.80553
7.80966
7.81517
7.82214
7.83149
7.84329
7.85924
7.87912
7.90631
7.93832
7.9837
8.01969
8.08955
8.12994
8.07519
7.73397
6.76384
4.8818
2.45658
0.629027
0.0293499
0.575665
1.97387
3.64073
5.20274
6.3857
7.12968
7.52054
7.6937
7.76003
7.78233
7.78901
7.79081
7.79127
7.79141
7.79149
7.79157
7.79168
7.79182
7.792
7.79225
7.79255
7.79296
7.79347
7.79415
7.795
7.79613
7.79755
7.79943
7.80179
7.80492
7.80885
7.81407
7.82062
7.82935
7.84022
7.85489
7.87279
7.89747
7.92519
7.9628
8.0095
8.04541
8.02472
7.85571
7.2985
6.01946
3.89994
1.61077
0.28421
0.00941526
0.575715
1.97399
3.64082
5.20243
6.3862
7.13053
7.52091
7.69375
7.75994
7.78219
7.78885
7.79065
7.79111
7.79125
7.79132
7.7914
7.79151
7.79165
7.79183
7.79207
7.79237
7.79276
7.79327
7.79393
7.79476
7.79585
7.79723
7.79903
7.80131
7.80429
7.80803
7.81294
7.81908
7.82713
7.83716
7.85032
7.86657
7.88766
7.91339
7.94373
7.97847
7.99778
7.95828
7.7515
7.13945
5.80454
3.68298
1.48241
0.256941
0.00894268
0.575726
1.974
3.64072
5.20179
6.3866
7.13129
7.52102
7.69349
7.75953
7.78173
7.78837
7.79016
7.79061
7.79075
7.79082
7.7909
7.791
7.79114
7.79131
7.79154
7.79184
7.79222
7.79271
7.79334
7.79415
7.7952
7.79653
7.79825
7.80043
7.80325
7.80679
7.81139
7.81713
7.82456
7.83375
7.84558
7.86008
7.8783
7.90035
7.92499
7.95313
7.96171
7.90698
7.67262
7.02257
5.65305
3.53781
1.40307
0.240966
0.00838638
0.575602
1.97362
3.63997
5.20024
6.38614
7.13099
7.51979
7.69181
7.75766
7.77979
7.7864
7.78818
7.78863
7.78875
7.78882
7.78889
7.78898
7.7891
7.78926
7.78947
7.78974
7.79009
7.79055
7.79115
7.79191
7.79289
7.79414
7.79575
7.7978
7.80043
7.80374
7.80798
7.8133
7.82007
7.82849
7.83907
7.85215
7.86807
7.88748
7.90857
7.92939
7.92842
7.86261
7.60813
6.93027
5.53562
3.42754
1.34446
0.229363
0.00797299
0.575007
1.97186
3.63696
5.19584
6.38199
7.12608
7.51346
7.68478
7.75032
7.77232
7.77888
7.78063
7.78105
7.78115
7.78119
7.78123
7.78128
7.78136
7.78147
7.78162
7.78183
7.78211
7.78248
7.78296
7.78361
7.78444
7.78552
7.78692
7.78872
7.79102
7.79395
7.79769
7.80239
7.80832
7.81571
7.82488
7.8362
7.84975
7.86615
7.88352
7.89907
7.89112
7.81525
7.54557
6.84785
5.43782
3.34062
1.30018
0.220804
0.00766916
0.572886
1.96571
3.62659
5.1818
6.36497
7.10557
7.49014
7.65993
7.72477
7.74647
7.7529
7.75456
7.75492
7.75495
7.75491
7.75484
7.75479
7.75474
7.75472
7.7547
7.75473
7.75479
7.75492
7.75513
7.75545
7.75591
7.75657
7.75746
7.75869
7.76031
7.76245
7.76522
7.76881
7.77337
7.77916
7.78632
7.79527
7.80591
7.81872
7.83187
7.8413
7.82719
7.74252
7.46175
6.75175
5.33659
3.25822
1.26037
0.213273
0.00740277
0.566414
1.94695
3.59465
5.138
6.30941
7.0392
7.41666
7.5827
7.64584
7.66683
7.67292
7.67438
7.67455
7.67441
7.67415
7.67384
7.67351
7.67314
7.67275
7.67233
7.67189
7.67141
7.67094
7.67045
7.66998
7.66954
7.66917
7.6689
7.66878
7.66887
7.66924
7.67
7.67124
7.67312
7.67578
7.67937
7.68414
7.69005
7.69733
7.70435
7.70651
7.68576
7.59351
7.30714
6.59769
5.19885
3.16209
1.21878
0.205803
0.00714099
0.549628
1.89702
3.50731
5.01528
6.15242
6.85388
7.21427
7.37171
7.43104
7.45044
7.45582
7.45683
7.45664
7.45609
7.45536
7.45452
7.45358
7.45253
7.45135
7.45004
7.44858
7.44697
7.44518
7.44323
7.44108
7.43877
7.43624
7.43356
7.43066
7.42767
7.4245
7.42132
7.41803
7.41489
7.4118
7.40904
7.40657
7.40457
7.40289
7.40037
7.39245
7.36289
7.26451
6.98127
6.29482
4.95406
3.01078
1.15991
0.195793
0.00679371
0.513649
1.78207
3.29923
4.71108
5.76319
6.40383
6.72952
6.8701
6.9222
6.93871
6.94279
6.943
6.94222
6.94092
6.93936
6.9376
6.93559
6.93334
6.93078
6.92794
6.92471
6.92113
6.91708
6.91262
6.90758
6.90208
6.89587
6.88915
6.8816
6.87351
6.86449
6.85492
6.84433
6.83326
6.82117
6.80871
6.79534
6.78175
6.76728
6.75168
6.73062
6.69067
6.58994
6.32559
5.70202
4.49453
2.74283
1.06206
0.179796
0.00624299
0.450445
1.5531
2.86495
4.06796
4.95085
5.48192
5.74844
5.86164
5.90254
5.91479
5.91704
5.91642
5.91475
5.91255
5.90997
5.90708
5.90375
5.90005
5.8958
5.89109
5.8857
5.87975
5.87295
5.86549
5.85698
5.84768
5.83711
5.82564
5.81266
5.79867
5.78293
5.76611
5.74734
5.72749
5.70557
5.6827
5.65782
5.63222
5.6048
5.5763
5.54304
5.4958
5.40191
5.18135
4.67798
3.70869
2.28914
0.898657
0.153387
0.0053358
0.356845
1.17411
2.12569
2.98517
3.61018
3.98308
4.16817
4.24547
4.27256
4.28
4.28059
4.2794
4.2772
4.27455
4.27146
4.26802
4.26405
4.25963
4.25456
4.24894
4.2425
4.23541
4.2273
4.2184
4.20825
4.19719
4.18461
4.17097
4.15553
4.13892
4.12025
4.10032
4.0781
4.05464
4.02878
4.00182
3.97258
3.94256
3.9106
3.87797
3.8421
3.79821
3.72567
3.57418
3.24126
2.59997
1.63953
0.661289
0.11488
0.00401202
0.240393
0.687788
1.19968
1.6618
1.99896
2.19998
2.29906
2.33985
2.35371
2.35711
2.35698
2.35585
2.35408
2.35202
2.34962
2.34695
2.34386
2.34044
2.33651
2.33217
2.32718
2.32171
2.31544
2.30859
2.30078
2.29228
2.28263
2.2722
2.26042
2.24778
2.2336
2.21851
2.20175
2.18412
2.16477
2.14468
2.123
2.10085
2.07742
2.05377
2.02854
2.00004
1.95861
1.88091
1.71708
1.40076
0.9119
0.384845
0.0692646
0.00243927
0.128289
0.261735
0.431053
0.590943
0.709473
0.780285
0.815
0.829131
0.833818
0.834847
0.834695
0.834156
0.83338
0.832481
0.83144
0.83028
0.828943
0.82746
0.825755
0.823874
0.821719
0.819351
0.816647
0.813691
0.810327
0.806671
0.802527
0.798055
0.793014
0.787615
0.781576
0.775168
0.768069
0.760622
0.752477
0.744048
0.734987
0.725764
0.716058
0.706323
0.696101
0.685011
0.670089
0.644254
0.591861
0.491066
0.331462
0.149208
0.0288751
0.00103906
0.0484055
0.0480657
0.0697694
0.0953764
0.114655
0.126127
0.131721
0.133983
0.134722
0.134873
0.134838
0.134737
0.134596
0.134434
0.134247
0.134038
0.133797
0.13353
0.133223
0.132885
0.132497
0.132072
0.131586
0.131056
0.130452
0.129798
0.129056
0.128257
0.127357
0.126395
0.125319
0.124181
0.12292
0.121602
0.120162
0.118676
0.117081
0.115463
0.113763
0.112066
0.110295
0.10841
0.105966
0.101922
0.0939315
0.0786862
0.0544199
0.0260262
0.00573866
0.000225085
0.00944709
0.00193132
0.0024189
0.00328161
0.00394766
0.00434315
0.00453577
0.00461357
0.004639
0.00464419
0.00464305
0.00463964
0.00463487
0.00462937
0.00462301
0.00461592
0.00460776
0.00459869
0.0045883
0.0045768
0.00456367
0.00454922
0.00453276
0.00451474
0.0044943
0.00447204
0.00444691
0.00441973
0.00438921
0.00435648
0.00432001
0.00428126
0.00423851
0.00419362
0.00414475
0.00409413
0.00403997
0.00398481
0.00392704
0.00386917
0.00380894
0.00374468
0.0036615
0.00352363
0.00325113
0.00273036
0.00189986
0.000924592
0.000219542
1.48759e-05
0.581224
0.152479
0.0868303
0.0507574
0.0289162
0.0161645
0.00894829
0.00493112
0.00271171
0.00148968
0.000817883
0.00044886
0.000246253
0.000135054
7.40438e-05
4.05813e-05
2.22374e-05
1.21993e-05
6.77131e-06
4.15203e-06
16.5078
10.9043
6.31092
3.51926
1.94318
1.06963
0.58806
0.323106
0.177459
0.0974354
0.0534823
0.029348
0.0160997
0.00882921
0.0048404
0.00265268
0.00145318
0.000795716
0.000435438
0.000238391
5.12414
2.23206
1.27735
0.735185
0.41419
0.230196
0.127091
0.0699534
0.0384488
0.021117
0.0115926
0.00636164
0.00348993
0.00191392
0.00104927
0.000575043
0.000315079
0.000172789
9.56644e-05
5.70918e-05
1.43365e-05
0.000214269
0.000982012
0.00227397
0.00366867
0.0047615
0.00541143
0.00570025
0.00577393
0.00575144
0.00569209
0.00561857
0.00554306
0.00546962
0.0053996
0.00533352
0.00527171
0.00521424
0.00516121
0.00511246
0.00506795
0.00502737
0.00499062
0.00495734
0.0049274
0.00490039
0.00487626
0.00485453
0.00483524
0.00481786
0.00480254
0.00478872
0.00477662
0.00476565
0.00475615
0.00474748
0.00474004
0.00473319
0.00472738
0.004722
0.00471742
0.00471324
0.00470956
0.00470641
0.00470331
0.00470107
0.00469828
0.00469691
0.00469422
0.00469372
0.00469113
0.00469134
0.00468886
0.00468948
0.00468714
0.00468797
0.00468591
0.00468674
0.00468498
0.00468573
0.00468428
0.0046849
0.00468374
0.00468423
0.00468332
0.0046837
0.00468299
0.00468328
0.00468274
0.00468295
0.00468254
0.00468269
0.00468238
0.00468248
0.00468225
0.00468233
0.00468215
0.00468221
0.00468208
0.00468211
0.00468201
0.00468204
0.00468197
0.00468198
0.00468193
0.00468194
0.0046819
0.0046819
0.00468187
0.00468188
0.00468185
0.00468186
0.00468184
0.00468184
0.00468183
0.00468182
0.00468181
0.00468181
0.0046818
0.0046818
0.000213923
0.00552581
0.0274074
0.0647556
0.105326
0.137265
0.156346
0.164884
0.167123
0.166524
0.16485
0.162756
0.1606
0.158502
0.156502
0.154614
0.152848
0.151205
0.14969
0.148296
0.147024
0.145864
0.144813
0.143861
0.143005
0.142233
0.141543
0.140921
0.140369
0.139873
0.139434
0.139039
0.138693
0.138379
0.138107
0.137859
0.137646
0.13745
0.137284
0.13713
0.136999
0.13688
0.136774
0.136684
0.136596
0.136531
0.136452
0.136412
0.136335
0.136321
0.136247
0.136253
0.136182
0.1362
0.136133
0.136157
0.136097
0.136122
0.13607
0.136092
0.13605
0.136069
0.136035
0.13605
0.136023
0.136034
0.136014
0.136022
0.136007
0.136013
0.136001
0.136006
0.135997
0.136
0.135993
0.135995
0.13599
0.135992
0.135988
0.135989
0.135986
0.135987
0.135985
0.135985
0.135984
0.135984
0.135983
0.135983
0.135982
0.135982
0.135982
0.135982
0.135981
0.135981
0.135981
0.135981
0.135981
0.135981
0.13598
0.13598
0.000905712
0.0253759
0.143701
0.364566
0.614415
0.816081
0.939278
0.996226
1.01307
1.01117
1.00253
0.991062
0.979095
0.967406
0.956244
0.945699
0.935825
0.926636
0.918148
0.910339
0.903201
0.896691
0.890792
0.885444
0.880632
0.876288
0.872405
0.868907
0.865799
0.863001
0.860531
0.858303
0.856352
0.854584
0.853051
0.851652
0.850452
0.849347
0.848409
0.84754
0.846802
0.846127
0.845535
0.845023
0.844527
0.844161
0.843715
0.843489
0.84306
0.842973
0.842559
0.842588
0.842193
0.842287
0.841915
0.842043
0.841714
0.841844
0.841563
0.84168
0.84145
0.841547
0.841363
0.84144
0.841295
0.841354
0.841242
0.841286
0.841201
0.841233
0.841168
0.841191
0.841142
0.841159
0.841122
0.841134
0.841106
0.841114
0.841094
0.841099
0.841084
0.841087
0.841076
0.841078
0.84107
0.841071
0.841065
0.841066
0.841061
0.841061
0.841058
0.841058
0.841055
0.841055
0.841053
0.841053
0.841051
0.841051
0.84105
0.84105
0.00187143
0.0534459
0.323459
0.879189
1.5565
2.13332
2.50191
2.68229
2.74483
2.74937
2.73387
2.70941
2.68295
2.65688
2.63191
2.60828
2.58613
2.56549
2.54639
2.5288
2.5127
2.498
2.48467
2.47257
2.46168
2.45184
2.44303
2.4351
2.42804
2.42168
2.41607
2.41101
2.40657
2.40255
2.39906
2.39587
2.39314
2.39062
2.38849
2.3865
2.38483
2.38328
2.38194
2.38076
2.37964
2.37879
2.37779
2.37726
2.37629
2.37608
2.37514
2.3752
2.37431
2.37452
2.37368
2.37397
2.37322
2.37351
2.37288
2.37314
2.37262
2.37284
2.37242
2.37259
2.37227
2.3724
2.37215
2.37224
2.37205
2.37212
2.37198
2.37203
2.37192
2.37195
2.37187
2.3719
2.37184
2.37185
2.37181
2.37182
2.37179
2.37179
2.37177
2.37177
2.37175
2.37176
2.37174
2.37174
2.37173
2.37173
2.37173
2.37173
2.37172
2.37172
2.37171
2.37171
2.37171
2.37171
2.37171
2.37171
0.00268607
0.0772166
0.481169
1.36514
2.51329
3.54563
4.23762
4.59638
4.73718
4.76739
4.75526
4.72744
4.69456
4.66156
4.62988
4.59991
4.57181
4.54564
4.52144
4.49914
4.47874
4.46011
4.44321
4.42787
4.41406
4.40158
4.3904
4.38034
4.37138
4.36331
4.35619
4.34976
4.34412
4.33901
4.33458
4.33054
4.32707
4.32387
4.32116
4.31864
4.31651
4.31454
4.31285
4.31134
4.30993
4.30884
4.30758
4.30689
4.30566
4.30539
4.3042
4.30428
4.30314
4.30342
4.30234
4.30271
4.30176
4.30212
4.30133
4.30165
4.301
4.30126
4.30075
4.30095
4.30055
4.30071
4.3004
4.30051
4.30028
4.30036
4.30018
4.30024
4.3001
4.30015
4.30005
4.30007
4.3
4.30002
4.29996
4.29998
4.29993
4.29994
4.29991
4.29992
4.29989
4.29989
4.29988
4.29988
4.29987
4.29987
4.29986
4.29986
4.29985
4.29985
4.29984
4.29984
4.29984
4.29984
4.29983
4.29983
0.00316186
0.0911372
0.575743
1.67272
3.15855
4.54814
5.51291
6.03438
6.25615
6.3224
6.32295
6.30298
6.27452
6.2451
6.21687
6.19032
6.1656
6.14272
6.12167
6.10238
6.0848
6.06882
6.05438
6.04131
6.02957
6.019
6.00955
6.00106
5.99351
5.98673
5.98074
5.97535
5.97063
5.96636
5.96265
5.95927
5.95637
5.9537
5.95144
5.94933
5.94757
5.94592
5.94452
5.94325
5.94209
5.94117
5.94013
5.93954
5.93852
5.93829
5.93729
5.93738
5.93642
5.93667
5.93576
5.93608
5.93528
5.93559
5.93492
5.93519
5.93465
5.93487
5.93444
5.93461
5.93428
5.9344
5.93415
5.93424
5.93405
5.93412
5.93397
5.93402
5.93391
5.93394
5.93386
5.93388
5.93382
5.93383
5.93379
5.9338
5.93376
5.93377
5.93375
5.93375
5.93373
5.93373
5.93372
5.93372
5.93371
5.93371
5.9337
5.9337
5.93369
5.93369
5.93369
5.93369
5.93368
5.93368
5.93368
5.93368
0.00334641
0.0965503
0.614382
1.80866
3.46921
5.06486
6.20073
6.83162
7.11286
7.20899
7.22422
7.21303
7.19218
7.16951
7.14788
7.12789
7.10961
7.09298
7.07792
7.06434
7.05213
7.04117
7.03137
7.02261
7.01481
7.00785
7.00168
6.99617
6.99131
6.98696
6.98315
6.97973
6.97674
6.97405
6.97173
6.96961
6.9678
6.96614
6.96474
6.96343
6.96234
6.96131
6.96046
6.95967
6.95897
6.95838
6.95776
6.95738
6.95676
6.95662
6.95599
6.95607
6.95546
6.95563
6.95506
6.95526
6.95477
6.95496
6.95455
6.95471
6.95439
6.95451
6.95426
6.95436
6.95416
6.95423
6.95408
6.95413
6.95402
6.95405
6.95397
6.95399
6.95393
6.95395
6.9539
6.95391
6.95387
6.95388
6.95386
6.95386
6.95384
6.95384
6.95383
6.95383
6.95382
6.95382
6.95381
6.95381
6.95381
6.95381
6.9538
6.9538
6.9538
6.9538
6.95379
6.95379
6.95379
6.95379
6.95379
6.95379
0.00337002
0.0972523
0.621307
1.8423
3.5667
5.25872
6.48825
7.18485
7.50407
7.61986
7.64527
7.63947
7.62359
7.60541
7.5883
7.57292
7.55927
7.54722
7.53662
7.52733
7.51919
7.51208
7.50588
7.50045
7.49573
7.49159
7.48799
7.48483
7.48208
7.47966
7.47756
7.4757
7.4741
7.47266
7.47144
7.47032
7.46939
7.46852
7.4678
7.46713
7.46658
7.46605
7.46563
7.46522
7.46488
7.46458
7.46427
7.46408
7.46378
7.46371
7.46339
7.46344
7.46313
7.46322
7.46293
7.46303
7.46278
7.46288
7.46267
7.46275
7.46259
7.46265
7.46253
7.46257
7.46248
7.46251
7.46244
7.46246
7.46241
7.46242
7.46238
7.46239
7.46236
7.46237
7.46235
7.46235
7.46234
7.46234
7.46233
7.46233
7.46232
7.46232
7.46231
7.46231
7.46231
7.46231
7.46231
7.46231
7.4623
7.4623
7.4623
7.4623
7.4623
7.4623
7.4623
7.4623
7.46229
7.46229
7.46229
7.46229
0.00330456
0.0953466
0.611447
1.82492
3.56327
5.29539
6.57557
7.31455
7.65908
7.78711
7.8177
7.81391
7.79956
7.78277
7.7673
7.75382
7.74224
7.73237
7.72398
7.71687
7.71086
7.70579
7.70151
7.69789
7.69484
7.69226
7.69008
7.68822
7.68665
7.6853
7.68416
7.68318
7.68235
7.68162
7.68101
7.68047
7.68002
7.67961
7.67928
7.67896
7.67872
7.67848
7.67829
7.67811
7.67796
7.67783
7.6777
7.67762
7.67749
7.67748
7.67734
7.67737
7.67722
7.67726
7.67712
7.67717
7.67705
7.67709
7.677
7.67703
7.67696
7.67699
7.67694
7.67696
7.67692
7.67693
7.6769
7.67691
7.67689
7.67689
7.67688
7.67688
7.67687
7.67687
7.67686
7.67686
7.67686
7.67686
7.67685
7.67685
7.67685
7.67685
7.67685
7.67685
7.67685
7.67685
7.67684
7.67684
7.67684
7.67684
7.67684
7.67684
7.67684
7.67684
7.67684
7.67684
7.67684
7.67684
7.67684
7.67684
0.00320369
0.092416
0.594812
1.78607
3.51504
5.26726
6.58475