/*--------------------------------*- C++ -*----------------------------------*\
| =========                 |                                                 |
| \\      /  F ield         | foam-extend: Open Source CFD                    |
|  \\    /   O peration     | Version:     4.0                                |
|   \\  /    A nd           | Web:         http://www.foam-extend.org         |
|    \\/     M anipulation  |                                                 |
\*---------------------------------------------------------------------------*/
FoamFile
{
    version     2.0;
    format      ascii;
    class       volScalarField;
    location    "4e-05";
    object      nut;
}
// * * * * * * * * * * * * * * * * * * * * * * * * * * * * * * * * * * * * * //

dimensions      [0 2 -1 0 0 0 0];

internalField   nonuniform List<scalar> 
28770
(
5.0359e-10
1.02952e-10
1.28943e-10
1.74931e-10
2.10436e-10
2.31518e-10
2.41785e-10
2.45932e-10
2.47288e-10
2.47565e-10
2.47504e-10
2.47322e-10
2.47068e-10
2.46775e-10
2.46436e-10
2.46058e-10
2.45623e-10
2.45139e-10
2.44585e-10
2.43973e-10
2.43273e-10
2.42502e-10
2.41625e-10
2.40665e-10
2.39575e-10
2.38388e-10
2.37048e-10
2.356e-10
2.33973e-10
2.32228e-10
2.30284e-10
2.28218e-10
2.2594e-10
2.23547e-10
2.20942e-10
2.18243e-10
2.15356e-10
2.12416e-10
2.09337e-10
2.06252e-10
2.03041e-10
1.99615e-10
1.95181e-10
1.87832e-10
1.73306e-10
1.45546e-10
1.01275e-10
4.92866e-11
1.1703e-11
7.92981e-13
1.97379e-08
1.52627e-08
2.16341e-08
2.94869e-08
3.54288e-08
3.89683e-08
4.06937e-08
4.13898e-08
4.16151e-08
4.16584e-08
4.16434e-08
4.1608e-08
4.15591e-08
4.15034e-08
4.14385e-08
4.13667e-08
4.12834e-08
4.11918e-08
4.10857e-08
4.09698e-08
4.08358e-08
4.06903e-08
4.05227e-08
4.03416e-08
4.01337e-08
3.99105e-08
3.96554e-08
3.93836e-08
3.90746e-08
3.87483e-08
3.83802e-08
3.79953e-08
3.75656e-08
3.71215e-08
3.66325e-08
3.61339e-08
3.5595e-08
3.50544e-08
3.44833e-08
3.39192e-08
3.33292e-08
3.2712e-08
3.19255e-08
3.06651e-08
2.82208e-08
2.36017e-08
1.62498e-08
7.54275e-09
1.27988e-09
1.25136e-11
2.54032e-07
2.793e-07
4.08301e-07
5.44113e-07
6.48377e-07
7.11558e-07
7.42711e-07
7.55397e-07
7.59555e-07
7.60397e-07
7.60152e-07
7.59546e-07
7.58701e-07
7.57732e-07
7.56606e-07
7.55356e-07
7.5391e-07
7.52314e-07
7.50472e-07
7.48451e-07
7.46125e-07
7.43585e-07
7.40672e-07
7.37508e-07
7.33891e-07
7.29987e-07
7.25544e-07
7.20783e-07
7.15394e-07
7.09669e-07
7.03237e-07
6.96471e-07
6.88946e-07
6.81122e-07
6.72537e-07
6.63733e-07
6.54243e-07
6.44671e-07
6.3458e-07
6.24556e-07
6.14057e-07
6.02903e-07
5.88331e-07
5.6408e-07
5.15762e-07
4.225e-07
2.71385e-07
9.85144e-08
8.92588e-09
5.77668e-11
1.83293e-06
2.02404e-06
2.71402e-06
3.44161e-06
4.01413e-06
4.37056e-06
4.55063e-06
4.62555e-06
4.65062e-06
4.65599e-06
4.65452e-06
4.651e-06
4.64603e-06
4.64031e-06
4.63364e-06
4.62624e-06
4.61768e-06
4.60823e-06
4.59732e-06
4.58534e-06
4.57156e-06
4.55649e-06
4.53922e-06
4.52044e-06
4.49898e-06
4.47578e-06
4.44938e-06
4.42105e-06
4.38899e-06
4.35487e-06
4.31655e-06
4.27615e-06
4.23123e-06
4.18442e-06
4.13305e-06
4.08027e-06
4.02334e-06
3.9658e-06
3.90508e-06
3.84452e-06
3.78056e-06
3.71058e-06
3.6134e-06
3.4386e-06
3.07278e-06
2.36012e-06
1.28591e-06
3.37323e-07
2.23812e-08
1.35611e-10
8.31513e-06
8.66868e-06
1.05514e-05
1.25711e-05
1.41936e-05
1.52326e-05
1.57741e-05
1.60064e-05
1.60864e-05
1.61043e-05
1.60992e-05
1.60877e-05
1.60714e-05
1.60525e-05
1.60305e-05
1.60061e-05
1.59778e-05
1.59465e-05
1.59104e-05
1.58707e-05
1.58251e-05
1.57751e-05
1.57178e-05
1.56554e-05
1.55842e-05
1.5507e-05
1.54193e-05
1.53248e-05
1.5218e-05
1.5104e-05
1.4976e-05
1.48407e-05
1.46902e-05
1.45329e-05
1.43602e-05
1.41823e-05
1.39901e-05
1.37953e-05
1.35893e-05
1.33823e-05
1.31593e-05
1.28993e-05
1.2494e-05
1.16797e-05
9.93014e-06
6.79074e-06
3.0131e-06
6.30349e-07
3.73799e-08
2.23048e-10
2.42318e-05
2.53714e-05
2.89779e-05
3.26092e-05
3.55318e-05
3.74366e-05
3.84575e-05
3.891e-05
3.90709e-05
3.9108e-05
3.90976e-05
3.9072e-05
3.90374e-05
3.89968e-05
3.89494e-05
3.88965e-05
3.88355e-05
3.87678e-05
3.86898e-05
3.86038e-05
3.8505e-05
3.83965e-05
3.82723e-05
3.81364e-05
3.79813e-05
3.78128e-05
3.7621e-05
3.7414e-05
3.71795e-05
3.69284e-05
3.66458e-05
3.6346e-05
3.60117e-05
3.56608e-05
3.52743e-05
3.48743e-05
3.44407e-05
3.39988e-05
3.35285e-05
3.30487e-05
3.25088e-05
3.18006e-05
3.05025e-05
2.76337e-05
2.1712e-05
1.28291e-05
4.76841e-06
8.80581e-07
4.99995e-08
2.96644e-10
4.6104e-05
5.13639e-05
5.74863e-05
6.27255e-05
6.64647e-05
6.88424e-05
7.01269e-05
7.07111e-05
7.09267e-05
7.09798e-05
7.09685e-05
7.09337e-05
7.08884e-05
7.08345e-05
7.07713e-05
7.07006e-05
7.06189e-05
7.05281e-05
7.04236e-05
7.03079e-05
7.01749e-05
7.00284e-05
6.98604e-05
6.96761e-05
6.94653e-05
6.92352e-05
6.89727e-05
6.86879e-05
6.83644e-05
6.80158e-05
6.76219e-05
6.72011e-05
6.67293e-05
6.62305e-05
6.56772e-05
6.50998e-05
6.44688e-05
6.38194e-05
6.31184e-05
6.23788e-05
6.14681e-05
6.00242e-05
5.68571e-05
4.94618e-05
3.5494e-05
1.83645e-05
6.06712e-06
1.05263e-06
5.86654e-08
3.4708e-10
6.29519e-05
7.45636e-05
8.36351e-05
9.05422e-05
9.47463e-05
9.71299e-05
9.83745e-05
9.89459e-05
9.91665e-05
9.92291e-05
9.92277e-05
9.92025e-05
9.91671e-05
9.91253e-05
9.90758e-05
9.90201e-05
9.89558e-05
9.88842e-05
9.88016e-05
9.871e-05
9.86047e-05
9.84883e-05
9.83546e-05
9.82073e-05
9.80386e-05
9.78535e-05
9.76419e-05
9.7411e-05
9.71477e-05
9.68622e-05
9.65379e-05
9.61891e-05
9.57952e-05
9.53756e-05
9.49059e-05
9.44113e-05
9.38648e-05
9.32949e-05
9.26644e-05
9.19515e-05
9.09065e-05
8.87548e-05
8.31894e-05
6.98421e-05
4.66446e-05
2.21149e-05
6.85967e-06
1.15658e-06
6.39357e-08
3.77697e-10
7.12334e-05
8.71458e-05
9.83582e-05
0.000106291
0.000110968
0.000113326
0.000114492
0.000115024
0.000115238
0.000115308
0.000115321
0.000115312
0.000115295
0.000115274
0.000115249
0.000115221
0.000115189
0.000115153
0.000115111
0.000115065
0.000115012
0.000114953
0.000114886
0.000114812
0.000114727
0.000114634
0.000114527
0.000114411
0.000114278
0.000114133
0.000113969
0.000113793
0.000113593
0.00011338
0.000113142
0.00011289
0.00011261
0.000112316
0.000111976
0.000111528
0.000110629
0.000108143
0.000100859
8.30394e-05
5.33894e-05
2.42718e-05
7.32502e-06
1.2209e-06
6.7269e-08
3.97004e-10
7.42885e-05
9.20062e-05
0.000104205
0.000112617
0.000117523
0.000119897
0.000121036
0.000121553
0.000121766
0.000121842
0.000121863
0.000121864
0.000121859
0.000121852
0.000121843
0.000121832
0.000121821
0.000121808
0.000121793
0.000121776
0.000121757
0.000121736
0.000121713
0.000121687
0.000121657
0.000121625
0.00012159
0.000121551
0.000121508
0.000121462
0.000121411
0.000121357
0.000121298
0.000121238
0.000121173
0.000121108
0.000121039
0.000120968
0.000120873
0.000120667
0.000119978
0.000117476
0.000109541
8.97141e-05
5.69898e-05
2.55459e-05
7.63685e-06
1.26799e-06
6.97817e-08
4.11558e-10
7.52297e-05
9.35321e-05
0.000106072
0.000114663
0.000119652
0.000122039
0.00012317
0.000123682
0.000123894
0.000123972
0.000123997
0.000124003
0.000124003
0.000124001
0.000123999
0.000123996
0.000123993
0.000123989
0.000123985
0.000123981
0.000123977
0.000123972
0.000123967
0.000123962
0.000123956
0.000123951
0.000123946
0.000123942
0.000123938
0.000123936
0.000123935
0.000123938
0.000123944
0.000123956
0.000123974
0.000124001
0.000124036
0.00012408
0.000124115
0.000124051
0.000123523
0.000121152
0.000113243
9.30216e-05
5.92128e-05
2.65331e-05
7.92182e-06
1.31485e-06
7.23481e-08
4.26368e-10
7.54834e-05
9.39473e-05
0.000106585
0.000115225
0.000120264
0.000122658
0.000123776
0.000124283
0.000124494
0.000124573
0.000124599
0.000124606
0.000124608
0.000124608
0.000124608
0.000124607
0.000124607
0.000124607
0.000124606
0.000124607
0.000124607
0.000124608
0.000124609
0.000124611
0.000124614
0.000124618
0.000124623
0.000124631
0.000124641
0.000124655
0.000124673
0.000124697
0.000124727
0.000124768
0.000124818
0.000124883
0.000124964
0.00012506
0.000125159
0.000125171
0.00012476
0.000122579
0.000114998
9.51196e-05
6.10729e-05
2.75214e-05
8.23269e-06
1.36765e-06
7.52664e-08
4.43259e-10
7.55435e-05
9.40465e-05
0.000106709
0.000115357
0.00012044
0.000122836
0.000123937
0.000124438
0.000124647
0.000124725
0.000124751
0.000124759
0.000124761
0.000124762
0.000124762
0.000124762
0.000124763
0.000124764
0.000124765
0.000124766
0.000124768
0.00012477
0.000124773
0.000124777
0.000124782
0.000124789
0.000124798
0.000124809
0.000124824
0.000124843
0.000124868
0.000124899
0.000124939
0.000124991
0.000125055
0.000125138
0.000125238
0.000125362
0.000125494
0.000125558
0.000125261
0.000123329
0.000116236
9.70977e-05
6.31929e-05
2.87703e-05
8.64533e-06
1.43941e-06
7.92617e-08
4.66242e-10
7.55557e-05
9.40671e-05
0.000106735
0.000115383
0.000120505
0.000122901
0.000123985
0.000124478
0.000124685
0.000124762
0.000124788
0.000124796
0.000124798
0.000124799
0.000124799
0.0001248
0.000124801
0.000124801
0.000124803
0.000124804
0.000124806
0.000124809
0.000124813
0.000124817
0.000124823
0.000124831
0.000124841
0.000124854
0.00012487
0.000124891
0.000124918
0.000124953
0.000124997
0.000125055
0.000125127
0.000125222
0.000125339
0.000125488
0.000125657
0.000125783
0.000125602
0.000123968
0.000117533
9.94865e-05
6.59806e-05
3.04891e-05
9.22317e-06
1.54049e-06
8.48467e-08
4.97169e-10
7.55579e-05
9.40716e-05
0.000106741
0.000115391
0.000120545
0.000122942
0.00012401
0.000124495
0.000124698
0.000124775
0.000124801
0.000124809
0.000124811
0.000124812
0.000124812
0.000124813
0.000124813
0.000124814
0.000124816
0.000124817
0.000124819
0.000124822
0.000124826
0.000124831
0.000124837
0.000124845
0.000124855
0.000124869
0.000124886
0.000124908
0.000124937
0.000124974
0.000125021
0.000125084
0.000125162
0.000125268
0.000125398
0.000125574
0.000125763
0.000125965
0.000125959
0.000124756
0.000119273
0.000102939
7.03416e-05
3.33944e-05
1.02705e-05
1.73828e-06
9.61668e-08
5.23443e-10
7.55595e-05
9.40751e-05
0.000106747
0.000115402
0.000120584
0.000122982
0.000124037
0.000124514
0.000124714
0.00012479
0.000124816
0.000124824
0.000124826
0.000124826
0.000124827
0.000124827
0.000124828
0.000124829
0.00012483
0.000124832
0.000124834
0.000124837
0.000124841
0.000124846
0.000124852
0.00012486
0.00012487
0.000124884
0.000124902
0.000124925
0.000124954
0.000124992
0.000125041
0.000125106
0.00012519
0.000125304
0.000125448
0.000125643
0.000125869
0.000126156
0.000126384
0.000125801
0.000122719
0.000111522
8.42402e-05
4.55095e-05
1.61534e-05
3.43966e-06
3.01161e-07
2.3466e-09
7.55627e-05
9.4082e-05
0.000106759
0.000115421
0.000120629
0.000123031
0.000124077
0.000124548
0.000124746
0.000124821
0.000124847
0.000124854
0.000124857
0.000124857
0.000124858
0.000124858
0.000124859
0.00012486
0.000124861
0.000124862
0.000124864
0.000124867
0.000124871
0.000124876
0.000124882
0.00012489
0.0001249
0.000124914
0.000124931
0.000124954
0.000124983
0.00012502
0.000125068
0.000125133
0.000125221
0.000125342
0.000125503
0.000125718
0.000125996
0.000126337
0.000126689
0.000126485
0.000124504
0.000115729
9.1453e-05
5.23129e-05
1.94121e-05
4.23828e-06
3.6211e-07
2.58148e-09
7.55689e-05
9.40943e-05
0.000106779
0.000115454
0.000120688
0.000123102
0.000124145
0.000124612
0.00012481
0.000124885
0.00012491
0.000124918
0.00012492
0.000124921
0.000124921
0.000124921
0.000124922
0.000124922
0.000124923
0.000124925
0.000124927
0.000124929
0.000124933
0.000124937
0.000124943
0.000124951
0.000124961
0.000124975
0.000124991
0.000125012
0.000125036
0.000125067
0.000125109
0.00012517
0.000125257
0.000125385
0.000125559
0.0001258
0.000126121
0.000126537
0.000126989
0.000127136
0.00012611
0.00011972
9.91019e-05
6.03887e-05
2.33989e-05
5.17477e-06
4.43293e-07
3.16799e-09
7.55787e-05
9.41134e-05
0.00010681
0.000115503
0.00012077
0.000123206
0.000124257
0.000124728
0.000124927
0.000125003
0.000125028
0.000125036
0.000125038
0.000125038
0.000125038
0.000125039
0.000125039
0.00012504
0.00012504
0.000125042
0.000125043
0.000125046
0.000125049
0.000125053
0.000125059
0.000125066
0.000125076
0.000125088
0.000125101
0.000125116
0.000125129
0.000125146
0.000125171
0.000125219
0.000125301
0.000125431
0.00012562
0.000125887
0.000126254
0.00012675
0.000127303
0.000127743
0.000127568
0.000123524
0.000107328
6.63541e-05
2.59164e-05
5.52783e-06
4.37363e-07
1.74379e-09
7.55922e-05
9.41392e-05
0.000106852
0.000115571
0.000120877
0.000123358
0.000124432
0.000124916
0.00012512
0.000125198
0.000125224
0.000125231
0.000125233
0.000125234
0.000125234
0.000125234
0.000125234
0.000125235
0.000125235
0.000125236
0.000125238
0.00012524
0.000125243
0.000125247
0.000125252
0.00012526
0.000125268
0.000125277
0.000125283
0.000125284
0.000125274
0.000125257
0.000125251
0.000125278
0.000125349
0.00012548
0.000125681
0.000125977
0.000126391
0.000126975
0.000127626
0.000128337
0.000128894
0.00012694
0.000115427
7.91016e-05
3.39474e-05
7.69026e-06
6.31428e-07
2.53024e-09
7.56083e-05
9.41701e-05
0.000106902
0.000115652
0.000121006
0.000123559
0.000124678
0.000125187
0.0001254
0.00012548
0.000125507
0.000125514
0.000125516
0.000125517
0.000125517
0.000125517
0.000125517
0.000125517
0.000125518
0.000125519
0.000125521
0.000125523
0.000125526
0.00012553
0.000125535
0.000125542
0.000125548
0.000125551
0.000125543
0.000125514
0.000125453
0.000125384
0.000125338
0.000125338
0.000125397
0.000125527
0.000125742
0.000126065
0.000126529
0.000127197
0.000127949
0.000128914
0.000130077
0.000129781
0.00011174
8.29839e-05
4.57635e-05
1.1247e-05
9.44754e-07
3.81431e-09
7.56251e-05
9.42025e-05
0.000106955
0.000115739
0.000121146
0.000123792
0.000124978
0.000125518
0.000125742
0.000125824
0.000125851
0.000125859
0.000125861
0.000125861
0.000125861
0.000125861
0.000125862
0.000125862
0.000125863
0.000125864
0.000125866
0.000125869
0.000125872
0.000125876
0.000125881
0.000125887
0.000125888
0.000125879
0.000125842
0.000125754
0.000125625
0.000125501
0.000125417
0.000125392
0.00012544
0.00012557
0.000125797
0.000126148
0.00012666
0.000127409
0.000128255
0.000129461
0.000131071
0.00012183
0.000100271
7.18431e-05
5.06494e-05
1.79195e-05
1.61376e-06
6.70254e-09
7.56408e-05
9.42326e-05
0.000107005
0.000115821
0.000121279
0.000124027
0.000125288
0.000125858
0.000126091
0.000126175
0.000126202
0.00012621
0.000126212
0.000126212
0.000126213
0.000126213
0.000126213
0.000126214
0.000126215
0.000126217
0.000126219
0.000126222
0.000126226
0.00012623
0.000126235
0.000126237
0.00012623
0.000126197
0.000126105
0.000125947
0.000125759
0.000125591
0.000125476
0.000125433
0.000125473
0.000125605
0.000125845
0.000126218
0.000126775
0.000127592
0.000128522
0.000129946
0.000131827
0.000111137
9.00702e-05
6.39654e-05
4.48605e-05
2.90833e-05
2.8335e-06
3.8301e-08
7.56534e-05
9.4257e-05
0.000107045
0.000115888
0.00012139
0.000124231
0.00012556
0.000126156
0.000126394
0.000126479
0.000126506
0.000126514
0.000126516
0.000126517
0.000126517
0.000126518
0.000126518
0.000126519
0.000126521
0.000126523
0.000126525
0.000126528
0.000126532
0.000126537
0.000126541
0.000126538
0.000126514
0.000126437
0.000126284
0.000126074
0.000125847
0.000125649
0.000125515
0.000125461
0.000125497
0.000125631
0.000125882
0.000126273
0.000126867
0.000127735
0.000128728
0.000130335
0.000126357
0.000102151
8.12498e-05
5.89327e-05
4.19543e-05
2.60935e-05
8.84255e-06
1.82072e-07
7.56618e-05
9.42731e-05
0.000107072
0.000115933
0.000121466
0.000124378
0.000125759
0.000126372
0.000126614
0.000126699
0.000126726
0.000126734
0.000126736
0.000126736
0.000126737
0.000126738
0.000126738
0.00012674
0.000126741
0.000126743
0.000126746
0.00012675
0.000126754
0.000126759
0.00012676
0.000126749
0.000126697
0.000126578
0.000126389
0.000126149
0.000125898
0.000125683
0.000125538
0.000125477
0.000125512
0.000125647
0.000125905
0.000126308
0.000126926
0.000127827
0.000128856
0.0001306
0.000119942
9.57318e-05
7.49124e-05
5.55768e-05
3.98109e-05
2.62814e-05
1.52683e-05
4.24053e-06
7.56647e-05
9.42788e-05
0.000107081
0.000115949
0.000121493
0.000124441
0.000125846
0.000126465
0.000126708
0.000126793
0.000126819
0.000126827
0.000126829
0.00012683
0.00012683
0.000126831
0.000126832
0.000126833
0.000126835
0.000126837
0.00012684
0.000126844
0.000126848
0.000126852
0.000126852
0.000126831
0.00012676
0.000126627
0.000126426
0.000126176
0.000125917
0.000125696
0.000125546
0.000125483
0.000125517
0.000125653
0.000125913
0.00012632
0.000126947
0.000127858
0.000128887
0.000130721
0.000116754
9.26381e-05
7.18652e-05
5.38746e-05
3.8932e-05
2.66462e-05
1.69979e-05
1.2667e-05
7.56618e-05
9.42731e-05
0.000107072
0.000115933
0.000121466
0.000124378
0.000125759
0.000126372
0.000126614
0.000126699
0.000126726
0.000126734
0.000126736
0.000126736
0.000126737
0.000126738
0.000126738
0.00012674
0.000126741
0.000126743
0.000126746
0.00012675
0.000126754
0.000126759
0.00012676
0.000126749
0.000126698
0.00012658
0.000126391
0.000126151
0.000125899
0.000125684
0.000125538
0.000125477
0.000125512
0.000125647
0.000125905
0.000126308
0.000126926
0.000127827
0.000128816
0.000130681
0.000117323
9.3395e-05
7.27323e-05
5.41488e-05
3.90716e-05
2.62925e-05
1.44892e-05
5.42011e-06
7.56534e-05
9.4257e-05
0.000107045
0.000115888
0.00012139
0.000124231
0.00012556
0.000126156
0.000126394
0.000126479
0.000126506
0.000126514
0.000126516
0.000126517
0.000126517
0.000126518
0.000126518
0.000126519
0.000126521
0.000126523
0.000126525
0.000126528
0.000126532
0.000126537
0.000126541
0.000126538
0.000126515
0.000126442
0.000126291
0.000126078
0.000125848
0.00012565
0.000125515
0.000125461
0.000125497
0.000125631
0.000125882
0.000126273
0.000126867
0.000127735
0.000128653
0.000130486
0.000121598
9.78544e-05
7.72256e-05
5.69631e-05
4.05922e-05
2.55475e-05
1.2379e-05
2.43766e-07
7.56408e-05
9.42326e-05
0.000107005
0.000115821
0.000121279
0.000124027
0.000125288
0.000125858
0.000126091
0.000126175
0.000126202
0.00012621
0.000126212
0.000126212
0.000126213
0.000126213
0.000126213
0.000126214
0.000126215
0.000126217
0.000126219
0.000126222
0.000126226
0.00012623
0.000126235
0.000126238
0.000126231
0.000126199
0.000126108
0.000125949
0.00012576
0.000125591
0.000125476
0.000125433
0.000125473
0.000125605
0.000125845
0.000126218
0.000126775
0.000127592
0.000128417
0.000130157
0.000128959
0.000105347
8.46931e-05
6.28099e-05
4.44025e-05
2.57802e-05
5.33058e-06
4.47048e-08
7.56252e-05
9.42025e-05
0.000106955
0.000115739
0.000121146
0.000123792
0.000124978
0.000125518
0.000125742
0.000125824
0.000125851
0.000125859
0.000125861
0.000125861
0.000125861
0.000125861
0.000125862
0.000125862
0.000125863
0.000125864
0.000125866
0.000125869
0.000125872
0.000125876
0.000125881
0.000125887
0.000125888
0.000125879
0.000125843
0.000125755
0.000125625
0.000125501
0.000125416
0.000125392
0.000125439
0.00012557
0.000125797
0.000126148
0.00012666
0.000127409
0.000128129
0.000129714
0.000131483
0.000115104
9.39764e-05
7.15874e-05
5.1899e-05
2.04226e-05
1.90632e-06
8.21549e-09
7.56083e-05
9.41701e-05
0.000106902
0.000115652
0.000121006
0.000123559
0.000124678
0.000125187
0.0001254
0.00012548
0.000125507
0.000125514
0.000125516
0.000125517
0.000125517
0.000125517
0.000125517
0.000125517
0.000125518
0.000125519
0.000125521
0.000125523
0.000125526
0.00012553
0.000125535
0.000125542
0.000125548
0.000125551
0.000125543
0.000125514
0.000125453
0.000125384
0.000125338
0.000125338
0.000125397
0.000125527
0.000125742
0.000126065
0.000126529
0.000127197
0.000127808
0.000129193
0.000130602
0.000126481
0.000104323
8.06315e-05
4.94146e-05
1.24961e-05
1.05907e-06
4.28787e-09
7.55922e-05
9.41392e-05
0.000106852
0.000115571
0.000120877
0.000123358
0.000124432
0.000124916
0.00012512
0.000125198
0.000125224
0.000125231
0.000125233
0.000125234
0.000125234
0.000125234
0.000125234
0.000125235
0.000125235
0.000125236
0.000125238
0.00012524
0.000125243
0.000125247
0.000125252
0.00012526
0.000125268
0.000125277
0.000125283
0.000125284
0.000125273
0.000125256
0.000125251
0.000125277
0.000125349
0.00012548
0.000125681
0.000125977
0.000126391
0.000126975
0.000127483
0.000128625
0.000129504
0.000128445
0.000115972
8.25465e-05
3.64763e-05
8.39769e-06
6.92027e-07
2.77537e-09
7.55787e-05
9.41134e-05
0.00010681
0.000115503
0.00012077
0.000123206
0.000124257
0.000124728
0.000124927
0.000125003
0.000125028
0.000125036
0.000125038
0.000125038
0.000125038
0.000125039
0.000125039
0.00012504
0.00012504
0.000125042
0.000125043
0.000125046
0.000125049
0.000125053
0.000125059
0.000125066
0.000125076
0.000125088
0.000125101
0.000125116
0.000125129
0.000125145
0.00012517
0.000125219
0.000125301
0.000125431
0.00012562
0.000125887
0.000126254
0.00012675
0.000127157
0.000128037
0.000128244
0.000125286
0.000111438
6.93274e-05
2.76291e-05
5.97923e-06
4.80644e-07
1.92609e-09
7.55689e-05
9.40943e-05
0.000106779
0.000115454
0.000120688
0.000123102
0.000124145
0.000124612
0.00012481
0.000124885
0.00012491
0.000124918
0.00012492
0.000124921
0.000124921
0.000124921
0.000124922
0.000124922
0.000124923
0.000124925
0.000124927
0.000124929
0.000124933
0.000124937
0.000124943
0.000124951
0.000124961
0.000124975
0.000124991
0.000125012
0.000125036
0.000125067
0.000125109
0.00012517
0.000125257
0.000125384
0.000125559
0.0001258
0.000126121
0.000126537
0.000126857
0.000127434
0.000126851
0.000121657
0.000103141
6.52177e-05
2.60455e-05
5.85181e-06
5.1054e-07
3.68434e-09
7.55627e-05
9.4082e-05
0.000106759
0.000115421
0.000120629
0.000123031
0.000124077
0.000124548
0.000124746
0.000124821
0.000124847
0.000124854
0.000124857
0.000124857
0.000124858
0.000124858
0.000124859
0.00012486
0.000124861
0.000124862
0.000124864
0.000124867
0.000124871
0.000124876
0.000124882
0.00012489
0.0001249
0.000124914
0.000124931
0.000124954
0.000124982
0.00012502
0.000125068
0.000125133
0.000125221
0.000125342
0.000125503
0.000125718
0.000125996
0.000126337
0.000126553
0.000126808
0.000125323
0.000117744
9.52165e-05
5.61562e-05
2.12755e-05
4.67278e-06
3.99031e-07
2.84798e-09
7.55595e-05
9.40751e-05
0.000106747
0.000115402
0.000120584
0.000122982
0.000124037
0.000124514
0.000124714
0.00012479
0.000124816
0.000124824
0.000124826
0.000124826
0.000124827
0.000124827
0.000124828
0.000124829
0.00012483
0.000124832
0.000124834
0.000124837
0.000124841
0.000124846
0.000124852
0.00012486
0.00012487
0.000124884
0.000124902
0.000124925
0.000124954
0.000124992
0.000125041
0.000125106
0.00012519
0.000125304
0.000125448
0.000125643
0.000125869
0.000126156
0.000126245
0.000126136
0.000123638
0.000113669
8.7847e-05
4.88605e-05
1.77801e-05
3.85512e-06
3.31391e-07
2.38555e-09
7.55579e-05
9.40716e-05
0.000106741
0.000115391
0.000120545
0.000122942
0.00012401
0.000124495
0.000124698
0.000124775
0.000124801
0.000124809
0.000124811
0.000124812
0.000124812
0.000124813
0.000124813
0.000124814
0.000124816
0.000124817
0.000124819
0.000124822
0.000124826
0.000124831
0.000124837
0.000124845
0.000124855
0.000124869
0.000124886
0.000124908
0.000124937
0.000124974
0.000125021
0.000125084
0.000125162
0.000125268
0.000125398
0.000125574
0.000125763
0.000125965
0.000125959
0.000124756
0.000119272
0.000102939
7.03415e-05
3.33945e-05
1.02705e-05
1.73828e-06
9.61667e-08
5.23442e-10
7.55557e-05
9.40671e-05
0.000106735
0.000115383
0.000120505
0.000122901
0.000123985
0.000124478
0.000124685
0.000124762
0.000124788
0.000124796
0.000124798
0.000124799
0.000124799
0.0001248
0.000124801
0.000124801
0.000124803
0.000124804
0.000124806
0.000124809
0.000124813
0.000124817
0.000124823
0.000124831
0.000124841
0.000124854
0.00012487
0.000124891
0.000124918
0.000124953
0.000124997
0.000125055
0.000125127
0.000125222
0.000125339
0.000125488
0.000125657
0.000125783
0.000125602
0.000123968
0.000117533
9.94864e-05
6.59806e-05
3.04891e-05
9.22317e-06
1.54049e-06
8.48467e-08
4.97169e-10
7.55435e-05
9.40465e-05
0.000106709
0.000115357
0.00012044
0.000122836
0.000123937
0.000124438
0.000124647
0.000124725
0.000124751
0.000124759
0.000124761
0.000124762
0.000124762
0.000124762
0.000124763
0.000124764
0.000124765
0.000124766
0.000124768
0.00012477
0.000124773
0.000124777
0.000124782
0.000124789
0.000124798
0.000124809
0.000124824
0.000124843
0.000124868
0.000124899
0.000124939
0.000124991
0.000125055
0.000125138
0.000125238
0.000125362
0.000125494
0.000125558
0.000125261
0.000123328
0.000116236
9.70975e-05
6.31928e-05
2.87703e-05
8.64534e-06
1.43941e-06
7.92617e-08
4.66242e-10
7.54834e-05
9.39473e-05
0.000106585
0.000115225
0.000120264
0.000122658
0.000123776
0.000124283
0.000124494
0.000124573
0.000124599
0.000124606
0.000124608
0.000124608
0.000124608
0.000124607
0.000124607
0.000124607
0.000124607
0.000124607
0.000124607
0.000124608
0.000124609
0.000124611
0.000124614
0.000124618
0.000124623
0.000124631
0.000124641
0.000124655
0.000124673
0.000124697
0.000124727
0.000124768
0.000124818
0.000124883
0.000124964
0.00012506
0.000125159
0.000125171
0.00012476
0.000122579
0.000114998
9.51195e-05
6.10728e-05
2.75214e-05
8.23269e-06
1.36765e-06
7.52664e-08
4.43259e-10
7.52296e-05
9.35321e-05
0.000106072
0.000114663
0.000119652
0.000122039
0.00012317
0.000123682
0.000123894
0.000123972
0.000123997
0.000124003
0.000124003
0.000124001
0.000123999
0.000123996
0.000123993
0.000123989
0.000123985
0.000123981
0.000123977
0.000123972
0.000123967
0.000123962
0.000123956
0.000123951
0.000123946
0.000123942
0.000123938
0.000123936
0.000123935
0.000123938
0.000123944
0.000123956
0.000123974
0.000124001
0.000124036
0.00012408
0.000124115
0.000124051
0.000123523
0.000121152
0.000113243
9.30216e-05
5.92128e-05
2.65331e-05
7.92182e-06
1.31485e-06
7.23481e-08
4.26367e-10
7.42885e-05
9.20061e-05
0.000104205
0.000112617
0.000117523
0.000119897
0.000121037
0.000121553
0.000121766
0.000121842
0.000121863
0.000121864
0.000121859
0.000121852
0.000121843
0.000121833
0.000121821
0.000121808
0.000121793
0.000121776
0.000121757
0.000121736
0.000121713
0.000121687
0.000121657
0.000121626
0.00012159
0.000121551
0.000121508
0.000121462
0.000121411
0.000121357
0.000121298
0.000121238
0.000121173
0.000121108
0.000121039
0.000120968
0.000120873
0.000120667
0.000119978
0.000117476
0.000109541
8.97141e-05
5.69898e-05
2.55459e-05
7.63686e-06
1.26799e-06
6.97817e-08
4.11558e-10
7.12333e-05
8.71457e-05
9.83582e-05
0.000106292
0.000110968
0.000113327
0.000114492
0.000115024
0.000115238
0.000115308
0.000115321
0.000115312
0.000115295
0.000115274
0.000115249
0.000115221
0.000115189
0.000115153
0.000115111
0.000115065
0.000115012
0.000114954
0.000114886
0.000114812
0.000114727
0.000114634
0.000114527
0.000114411
0.000114278
0.000114134
0.00011397
0.000113793
0.000113593
0.000113381
0.000113142
0.00011289
0.00011261
0.000112316
0.000111976
0.000111528
0.000110629
0.000108143
0.000100859
8.30394e-05
5.33894e-05
2.42718e-05
7.32503e-06
1.2209e-06
6.72689e-08
3.97004e-10
6.29518e-05
7.45635e-05
8.36351e-05
9.05423e-05
9.47465e-05
9.71302e-05
9.83748e-05
9.89461e-05
9.91667e-05
9.92293e-05
9.92279e-05
9.92027e-05
9.91673e-05
9.91255e-05
9.9076e-05
9.90203e-05
9.8956e-05
9.88844e-05
9.88019e-05
9.87103e-05
9.86049e-05
9.84885e-05
9.83548e-05
9.82075e-05
9.80388e-05
9.78537e-05
9.76421e-05
9.74112e-05
9.71479e-05
9.68624e-05
9.65381e-05
9.61893e-05
9.57954e-05
9.53758e-05
9.49061e-05
9.44115e-05
9.3865e-05
9.32951e-05
9.26646e-05
9.19517e-05
9.09067e-05
8.87549e-05
8.31895e-05
6.98422e-05
4.66446e-05
2.21149e-05
6.85967e-06
1.15658e-06
6.39357e-08
3.77697e-10
4.61039e-05
5.13638e-05
5.74863e-05
6.27255e-05
6.64649e-05
6.88426e-05
7.01271e-05
7.07112e-05
7.09268e-05
7.098e-05
7.09687e-05
7.09338e-05
7.08886e-05
7.08347e-05
7.07715e-05
7.07007e-05
7.06191e-05
7.05283e-05
7.04237e-05
7.0308e-05
7.01751e-05
7.00285e-05
6.98606e-05
6.96763e-05
6.94655e-05
6.92353e-05
6.89729e-05
6.86881e-05
6.83645e-05
6.80159e-05
6.7622e-05
6.72012e-05
6.67294e-05
6.62306e-05
6.56774e-05
6.50999e-05
6.44689e-05
6.38195e-05
6.31185e-05
6.23789e-05
6.14682e-05
6.00242e-05
5.68571e-05
4.94618e-05
3.5494e-05
1.83645e-05
6.06712e-06
1.05263e-06
5.86653e-08
3.4708e-10
2.42318e-05
2.53714e-05
2.89779e-05
3.26092e-05
3.55319e-05
3.74367e-05
3.84576e-05
3.89101e-05
3.9071e-05
3.91081e-05
3.90976e-05
3.9072e-05
3.90374e-05
3.89968e-05
3.89494e-05
3.88966e-05
3.88355e-05
3.87678e-05
3.86899e-05
3.86038e-05
3.85051e-05
3.83966e-05
3.82723e-05
3.81365e-05
3.79814e-05
3.78128e-05
3.76211e-05
3.7414e-05
3.71795e-05
3.69284e-05
3.66459e-05
3.6346e-05
3.60117e-05
3.56609e-05
3.52744e-05
3.48743e-05
3.44407e-05
3.39988e-05
3.35286e-05
3.30487e-05
3.25088e-05
3.18006e-05
3.05025e-05
2.76337e-05
2.1712e-05
1.28292e-05
4.76841e-06
8.80581e-07
4.99995e-08
2.96644e-10
8.31513e-06
8.66867e-06
1.05514e-05
1.25711e-05
1.41936e-05
1.52326e-05
1.57741e-05
1.60064e-05
1.60864e-05
1.61043e-05
1.60992e-05
1.60877e-05
1.60714e-05
1.60525e-05
1.60305e-05
1.60061e-05
1.59778e-05
1.59464e-05
1.59104e-05
1.58707e-05
1.58251e-05
1.57751e-05
1.57178e-05
1.56554e-05
1.55842e-05
1.5507e-05
1.54193e-05
1.53248e-05
1.5218e-05
1.5104e-05
1.4976e-05
1.48407e-05
1.46902e-05
1.45329e-05
1.43602e-05
1.41823e-05
1.39901e-05
1.37953e-05
1.35893e-05
1.33823e-05
1.31593e-05
1.28993e-05
1.2494e-05
1.16797e-05
9.93014e-06
6.79074e-06
3.0131e-06
6.30349e-07
3.73799e-08
2.23048e-10
1.83293e-06
2.02404e-06
2.71402e-06
3.44161e-06
4.01413e-06
4.37055e-06
4.55063e-06
4.62555e-06
4.65062e-06
4.65598e-06
4.65451e-06
4.651e-06
4.64603e-06
4.6403e-06
4.63364e-06
4.62624e-06
4.61768e-06
4.60822e-06
4.59732e-06
4.58534e-06
4.57156e-06
4.55649e-06
4.53922e-06
4.52044e-06
4.49897e-06
4.47577e-06
4.44938e-06
4.42105e-06
4.38899e-06
4.35487e-06
4.31655e-06
4.27615e-06
4.23123e-06
4.18442e-06
4.13305e-06
4.08027e-06
4.02334e-06
3.9658e-06
3.90507e-06
3.84452e-06
3.78056e-06
3.71058e-06
3.6134e-06
3.4386e-06
3.07278e-06
2.36012e-06
1.28591e-06
3.37323e-07
2.23812e-08
1.35611e-10
2.54031e-07
2.793e-07
4.08301e-07
5.44113e-07
6.48377e-07
7.11558e-07
7.42711e-07
7.55397e-07
7.59555e-07
7.60397e-07
7.60152e-07
7.59546e-07
7.58701e-07
7.57732e-07
7.56606e-07
7.55356e-07
7.5391e-07
7.52314e-07
7.50472e-07
7.48451e-07
7.46125e-07
7.43585e-07
7.40671e-07
7.37508e-07
7.3389e-07
7.29987e-07
7.25544e-07
7.20783e-07
7.15394e-07
7.09669e-07
7.03237e-07
6.96471e-07
6.88946e-07
6.81122e-07
6.72537e-07
6.63733e-07
6.54243e-07
6.44671e-07
6.3458e-07
6.24556e-07
6.14057e-07
6.02903e-07
5.88331e-07
5.6408e-07
5.15762e-07
4.225e-07