/*--------------------------------*- C++ -*----------------------------------*\
| =========                 |                                                 |
| \\      /  F ield         | foam-extend: Open Source CFD                    |
|  \\    /   O peration     | Version:     4.0                                |
|   \\  /    A nd           | Web:         http://www.foam-extend.org         |
|    \\/     M anipulation  |                                                 |
\*---------------------------------------------------------------------------*/
FoamFile
{
    version     2.0;
    format      ascii;
    class       volScalarField;
    location    "4e-05";
    object      omega;
}
// * * * * * * * * * * * * * * * * * * * * * * * * * * * * * * * * * * * * * //

dimensions      [0 0 -1 0 0 0 0];

internalField   nonuniform List<scalar> 
28770
(
1.87595e+07
1.87595e+07
1.87595e+07
1.87595e+07
1.87595e+07
1.87595e+07
1.87595e+07
1.87595e+07
1.87595e+07
1.87595e+07
1.87595e+07
1.87595e+07
1.87595e+07
1.87595e+07
1.87595e+07
1.87595e+07
1.87595e+07
1.87595e+07
1.87595e+07
1.87595e+07
1.87595e+07
1.87595e+07
1.87595e+07
1.87595e+07
1.87595e+07
1.87595e+07
1.87595e+07
1.87595e+07
1.87595e+07
1.87595e+07
1.87595e+07
1.87595e+07
1.87595e+07
1.87595e+07
1.87595e+07
1.87595e+07
1.87595e+07
1.87595e+07
1.87595e+07
1.87595e+07
1.87595e+07
1.87595e+07
1.87595e+07
1.87595e+07
1.87595e+07
1.87595e+07
1.87595e+07
1.87595e+07
1.87595e+07
1.87595e+07
2.45242e+06
3.14923e+06
3.22498e+06
3.23453e+06
3.23619e+06
3.23665e+06
3.23689e+06
3.2371e+06
3.23734e+06
3.23759e+06
3.23791e+06
3.23825e+06
3.23867e+06
3.23911e+06
3.23966e+06
3.24023e+06
3.24094e+06
3.24166e+06
3.24257e+06
3.24348e+06
3.24463e+06
3.24578e+06
3.24722e+06
3.24865e+06
3.25045e+06
3.25222e+06
3.25444e+06
3.25661e+06
3.25932e+06
3.26194e+06
3.26519e+06
3.26831e+06
3.27215e+06
3.27579e+06
3.2802e+06
3.28434e+06
3.28925e+06
3.29382e+06
3.29908e+06
3.30391e+06
3.30925e+06
3.31408e+06
3.31917e+06
3.3237e+06
3.32845e+06
3.33392e+06
3.34896e+06
3.45049e+06
4.48373e+06
1.79872e+07
505013
937113
1.05572e+06
1.08607e+06
1.09423e+06
1.09659e+06
1.09733e+06
1.09761e+06
1.09777e+06
1.09791e+06
1.09806e+06
1.09823e+06
1.09843e+06
1.09865e+06
1.09891e+06
1.09919e+06
1.09953e+06
1.09989e+06
1.10031e+06
1.10077e+06
1.10132e+06
1.10189e+06
1.10258e+06
1.1033e+06
1.10415e+06
1.10505e+06
1.10611e+06
1.10721e+06
1.1085e+06
1.10984e+06
1.1114e+06
1.11299e+06
1.11485e+06
1.11672e+06
1.11886e+06
1.12101e+06
1.12342e+06
1.12579e+06
1.1284e+06
1.13092e+06
1.13361e+06
1.13619e+06
1.13897e+06
1.14213e+06
1.14755e+06
1.16228e+06
1.22137e+06
1.51458e+06
3.23498e+06
1.79872e+07
131153
339810
442031
482857
497982
503363
505217
505853
506108
506254
506386
506525
506687
506867
507078
507312
507585
507884
508233
508614
509057
509538
510097
510701
511401
512153
513023
513951
515020
516152
517449
518811
520358
521965
523771
525624
527671
529741
531979
534206
536572
539010
542041
546999
558802
593511
709146
1.14088e+06
3.09477e+06
1.79872e+07
42915.1
135443
201460
237463
254352
261485
264241
265235
265601
265767
265888
266004
266137
266285
266458
266650
266874
267121
267408
267723
268088
268487
268949
269453
270033
270664
271388
272171
273067
274028
275123
276288
277607
278996
280551
282171
283956
285790
287771
289783
291968
294451
298198
306015
326407
382869
544134
1.04908e+06
3.0733e+06
1.79872e+07
18589
61214.5
98866.7
124749
139336
146432
149475
150646
151073
151242
151340
151424
151515
151616
151735
151866
152020
152190
152386
152604
152855
153132
153452
153803
154207
154648
155156
155708
156340
157025
157806
158645
159597
160610
161749
162948
164277
165659
167165
168730
170509
172821
177097
187501
215456
289084
480065
1.02053e+06
3.06778e+06
1.79872e+07
11141.1
34695
57391.5
75106.3
86710.5
93021.5
95962
97157.4
97596.6
97756.1
97829.2
97880.2
97931.6
97987.9
98053.3
98126.5
98211.5
98306.1
98415.7
98537.2
98677.8
98833.3
99012.9
99210.8
99439.3
99690.3
99979.6
100296
100661
101058
101513
102006
102569
103174
103859
104589
105405
106265
107216
108237
109498
111466
115904
127888
160647
244740
452080
1.00896e+06
3.06478e+06
1.79872e+07
8730.93
25441.7
41935.8
55391.7
64935.7
70564.1
73334.7
74502.4
74935
75083.3
75138.5
75167.7
75192.7
75218.8
75249
75282.9
75322.3
75366.2
75417.2
75474
75539.8
75612.8
75697.4
75791
75899.5
76019.4
76158.3
76311.3
76488.4
76682.9
76907.6
77153.4
77436.3
77744.1
78096.3
78476.2
78906.8
79367.4
79889.2
80481.2
81319.3
82957.7
87325
99957.8
134953
224015
438911
1.00288e+06
3.06234e+06
1.79872e+07
7951.53
22341.3
36546.6
48338.8
56857.9
62114.4
64778.9
65922.8
66348.4
66489.9
66535.6
66553.4
66564.8
66575.4
66587.5
66601
66616.8
66634.5
66655.2
66678.2
66705
66735
66769.9
66808.8
66854.2
66904.8
66963.9
67029.7
67106.6
67192.1
67292.1
67403.1
67532.5
67675.8
67842.3
68025.3
68236.6
68468.1
68740.9
69079.9
69660.9
71070.3
75288.3
87996.1
123577
214193
431683
998257
3.0594e+06
1.79872e+07
7711.64
21365
34802.5
46012.6
54159.5
59263.9
61883.3
63017
63439.6
63578.3
63620
63632.8
63638.4
63642.5
63646.9
63651.7
63657.5
63663.9
63671.5
63680.1
63690.2
63701.6
63715.1
63730.3
63748.4
63768.8
63793.1
63820.7
63853.5
63890.9
63935.5
63986.5
64047.2
64116.4
64198.8
64292.2
64403
64528.8
64685.6
64904.7
65356.4
66627.9
70681.6
83172.6
118473
208902
426645
993995
3.05629e+06
1.79872e+07
7643.36
21082.2
34287.8
45314
53338.1
58391.7
61000.9
62133.5
62556.1
62694.1
62734.4
62745.5
62748.9
62750.7
62752.2
62753.9
62756
62758.4
62761.2
62764.5
62768.5
62773.1
62778.7
62785.2
62793.2
62802.5
62813.9
62827.3
62843.8
62863.4
62887.3
62915.9
62950.8
62992.5
63043.2
63103.5
63176.8
63263.7
63377.7
63550.8
63948.2
65134.1
69012.9
81116.3
115648
204945
421699
988838
3.05196e+06
1.79872e+07
7625.55
21007.7
34150.9
45131
53100.9
58137.2
60753.3
61889.4
62313.5
62451.7
62491.8
62502.4
62505.2
62506.1
62506.8
62507.5
62508.4
62509.5
62510.9
62512.5
62514.5
62517
62520.1
62523.9
62528.6
62534.4
62541.7
62550.8
62562.1
62576.2
62593.8
62615.8
62643.1
62677.1
62719.1
62771.1
62835.3
62914.3
63019.7
63181.9
63557.1
64680.3
68371.7
79984.9
113475
201138
416333
983048
3.04735e+06
1.79872e+07
7621.12
20989.6
34118.3
45092.9
53027
58055.4
60684.1
61826
62252.1
62391
62431.2
62441.6
62444.3
62445
62445.5
62445.9
62446.5
62447.2
62448.1
62449.3
62450.8
62452.7
62455.1
62458.2
62462.1
62467
62473.3
62481.3
62491.4
62504.4
62520.6
62541.5
62567.6
62601.1
62642.5
62695.7
62761
62844.5
62953.8
63118.3
63492.5
64556.9
68025.3
79019.6
111129
196489
409216
974754
3.04013e+06
1.79872e+07
7619.75
20984.9
34110.9
45088.2
52995.2
58018.3
60659.7
61808.1
62236.5
62376.2
62416.6
62427.1
62429.7
62430.4
62430.8
62431.2
62431.7
62432.3
62433.2
62434.2
62435.6
62437.4
62439.7
62442.6
62446.3
62451.2
62457.3
62465.3
62475.4
62488.6
62505.1
62526.8
62553.9
62589.4
62633.5
62691.3
62762.5
62855.7
62976.3
63154.1
63521.7
64514.9
67711
77915.1
108205
190381
399318
962302
3.02829e+06
1.79872e+07
7618.86
20982.6
34108.1
45087.8
52973.4
57992.2
60644.5
61799.4
62230.4
62370.9
62411.5
62422.1
62424.6
62425.4
62425.8
62426.2
62426.6
62427.3
62428.1
62429.2
62430.5
62432.4
62434.6
62437.6
62441.4
62446.4
62452.6
62460.9
62471.3
62485.1
62502.5
62525.6
62554.5
62592.9
62640.5
62704.6
62782.4
62890.8
63016.8
63214.5
63588
64489.2
67280.5
76314.4
103758
180253
379724
926644
2.95538e+06
1.79872e+07
7617.89
20980.2
34104.8
45085
52953.3
57967.8
60628.8
61789.8
62223.2
62364.5
62405.4
62416
62418.6
62419.4
62419.8
62420.2
62420.7
62421.3
62422.2
62423.3
62424.7
62426.6
62428.9
62432
62435.9
62441.1
62447.6
62456.3
62467.2
62481.8
62500.4
62525.3
62556.8
62598.8
62651.2
62721.4
62808
62926.8
63068.3
63284.2
63552
64131.9
65935.8
71835.8
90545
145065
289751
666390
1.90653e+06
1.22554e+07
7616.72
20977.1
34099.8
45078.1
52931.3
57940.8
60607.9
61773.8
62209.4
62351.4
62392.5
62403.2
62405.8
62406.6
62407
62407.5
62408
62408.8
62409.6
62410.8
62412.3
62414.3
62416.7
62420
62424.1
62429.5
62436.3
62445.5
62457.2
62473.1
62493.6
62521.3
62556.7
62603.6
62662.4
62739.9
62838.2
62968.4
63138.2
63365.5
63656.6
64166.4
65636.2
70378.6
85822.4
132554
261921
616518
1.881e+06
1.23012e+07
7615.35
20973.1
34092.5
45066.4
52904.6
57906.5
60576
61745
62182
62324.6
62365.8
62376.6
62379.3
62380.1
62380.6
62381.1
62381.7
62382.5
62383.4
62384.7
62386.3
62388.4
62391
62394.5
62398.8
62404.5
62411.8
62421.7
62434.6
62452.4
62476.2
62508.7
62550.4
62604.3
62671.2
62757.8
62868
63014.2
63208.1
63468.4
63783.6
64282.9
65536.6
69334
81844.4
121406
237831
577333
1.83142e+06
1.22561e+07
7613.78
20968.1
34082.6
45049
52870.8
57859.2
60525.5
61694.3
62131.5
62274.3
62315.7
62326.6
62329.3
62330.2
62330.7
62331.3
62331.9
62332.8
62333.9
62335.3
62337
62339.3
62342
62345.7
62350.3
62356.4
62364.3
62375.3
62390.1
62411.6
62441.6
62483.1
62535.6
62600.2
62677.9
62775.2
62899.1
63062.9
63283.3
63583.8
63936
64453.7
65597.8
68661.3
78416.7
116713
230274
581632
1.92917e+06
1.67848e+07
7612.05
20962.2
34070.1
45026.1
52828.7
57793.3
60447.8
61611.5
62047.2
62189.8
62231.3
62242.3
62245.1
62246
62246.6
62247.2
62247.9
62248.8
62249.9
62251.5
62253.2
62255.6
62258.5
62262.4
62267.2
62273.8
62282.5
62295.2
62313.6
62342.1
62384.3
62442.7
62512.2
62591.4
62681.9
62791.6
62929.6
63113.5
63361.6
63710.3
64106.3
64680.3
65803.5
68360.8
75850.4
105624
199773
510684
1.78395e+06
1.66118e+07
7610.28
20955.7
34056
44999.1
52780.3
57707.6
60338.3
61491.3
61923.8
62066.1
62107.7
62118.9
62121.7
62122.7
62123.2
62123.9
62124.6
62125.6
62126.7
62128.2
62130
62132.5
62135.4
62139.4
62144.4
62151.5
62161.4
62177
62202.4
62244.8
62311.2
62395
62485.4
62580.9
62685
62806.9
62959.4
63162.6
63440
63837.1
64285.4
64945.6
66132.5
68429.3
74272.3
96644.9
170704
440544
1.66375e+06
1.64762e+07
7608.59
20949.3
34041.6
44970.9
52729.7
57609.1
60204.5
61343.1
61772.3
61914.5
61956.5
61967.8
61970.6
61971.6
61972.2
61972.8
61973.4
61974.4
61975.4
61976.9
61978.6
61981
61983.8
61987.8
61992.9
62000.7
62012.8
62034.2
62072.8
62143
62241.4
62351.1
62461.4
62571.8
62688.1
62821.1
62987.1
63208.8
63515.4
63958.9
64460.1
65234
66551
68814.7
73654.7
90101
144577
361363
1.48086e+06
1.61504e+07
7607.13
20943.7
34028.5
44944.9
52682.6
57510.7
60066.1
61190.3
61617
61759.6
61802
61813.5
61816.4
61817.4
61817.8
61818.4
61819
61819.8
61820.8
61822.2
61823.7
61825.9
61828.6
61832.5
61837.9
61847
61863.3
61895.5
61959.5
62062.1
62187.6
62318
62443.9
62565.7
62691.7
62833.5
63011.3
63248.1
63582.1
64064.7
64616.8
65518.2
67007.3
69427.3
73908
86512.8
123490
271847
1.29399e+06
1.05385e+07
7606
20939.2
34018
44923.8
52644.2
57425.6
59944.4
61056.8
61482.1
61625.3
61668.2
61679.9
61682.9
61683.8
61684.2
61684.7
61685.2
61686
61686.8
61688
61689.5
61691.5
61694.1
61698
61704
61715.5
61739.3
61791.8
61884
62009.9
62153.4
62297.2
62433.3
62562.7
62695.3
62843.5
63030.4
63278.9
63635.1
64147.5
64740.1
65767.8
67435.1
70113.5
74726.8
85691.5
110872
196963
826802
8.46909e+06
7605.28
20936.3
34011.2
44910
52618.7
57364.1
59854.9
60959.4
61384.1
61528
61571.4
61583.3
61586.2
61587.2
61587.5
61588
61588.4
61589.1
61589.9
61591
61592.3
61594.2
61596.7
61600.7
61607.7
61623.1
61659.6
61731.4
61840.1
61979.5
62133.5
62285.4
62427.4
62561.2
62697.9
62849.9
63042.7
63298.4
63669.3
64200.4
64817.8
65950.7
67761.4
70686.8
75633.1
86432.8
107025
158193
324220
2.27999e+06
7605.03
20935.3
34008.8
44905.2
52610.4
57338.1
59815.5
60916.9
61341.8
61486.2
61529.8
61541.8
61544.8
61545.7
61546.1
61546.5
61546.9
61547.6
61548.3
61549.4
61550.7
61552.6
61555
61559.1
61567
61587
61632.1
61710.5
61824.3
61968
62125.9
62281
62425.4
62560.8
62698.9
62852.2
63047
63305.3
63681.2
64218.8
64837.3
66037.2
67918.9
70975.1
76140
87070.1
106932
148825
239690
472807
7605.28
20936.3
34011.2
44910
52618.7
57364.1
59854.9
60959.4
61384.1
61528
61571.4
61583.3
61586.2
61587.2
61587.5
61588
61588.4
61589.1
61589.9
61591
61592.3
61594.2
61596.7
61600.7
61607.7
61623
61659.3
61730.6
61839
61978.5
62133
62285.1
62427.4
62561.3
62698
62849.9
63042.7
63298.4
63669.3
64200.4
64794.7
66008.5
67866.3
70877.6
75964.8
86682.4
106891
153917
303295
1.70017e+06
7606
20939.2
34018
44923.8
52644.2
57425.6
59944.4
61056.8
61482.1
61625.3
61668.2
61679.9
61682.9
61683.8
61684.2
61684.7
61685.2
61686
61686.8
61688
61689.5
61691.5
61694.1
61697.9
61703.9
61715.3
61738.7
61789.4
61880.6
62008.1
62152.6
62297
62433.3
62562.8
62695.4
62843.6
63030.4
63279
63635.1
64147.6
64697.2
65870.2
67616.6
70427.4
75204.7
85817.2
109256
183694
568117
7.92563e+06
7607.13
20943.7
34028.5
44944.9
52682.6
57510.7
60066.1
61190.3
61617
61759.6
61802
61813.5
61816.4
61817.4
61817.8
61818.4
61819
61819.8
61820.8
61822.2
61823.7
61825.9
61828.6
61832.5
61837.9
61846.9
61862.9
61894.7
61958.5
62061.5
62187.4
62318.1
62444
62565.9
62691.8
62833.6
63011.4
63248.2
63582.1
64064.7
64557.5
65650.6
67231.3
69775.3
74277.7
86092
119412
250663
944313
1.0366e+07
7608.59
20949.3
34041.6
44970.9
52729.7
57609.2
60204.5
61343.1
61772.3
61914.5
61956.5
61967.8
61970.6
61971.6
61972.2
61972.8
61973.4
61974.4
61975.4
61976.9
61978.6
61981
61983.8
61987.8
61992.9
62000.7
62012.7
62033.9
62072.5
62142.8
62241.4
62351.3
62461.6
62572
62688.2
62821.2
62987.2
63208.8
63515.4
63958.9
64390.8
65378.4
66779.3
69102.8
73694.3
88928.6
138735
340827
1.41428e+06
1.57149e+07
7610.28
20955.7
34056
44999.1
52780.3
57707.6
60338.3
61491.3
61923.9
62066.1
62107.7
62118.9
62121.7
62122.7
62123.2
62123.9
62124.6
62125.6
62126.7
62128.2
62130
62132.5
62135.4
62139.4
62144.4
62151.4
62161.3
62177
62202.3
62244.7
62311.3
62395.2
62485.6
62581
62685.1
62806.9
62959.4
63162.6
63440.1
63837.1
64210
65087.8
66333.5
68588.1
73849.4
94784.3
163935
422475
1.62936e+06
1.64435e+07
7612.05
20962.2
34070.1
45026.1
52828.7
57793.3
60447.8
61611.5
62047.2
62189.8
62231.3
62242.3
62245.1
62246
62246.6
62247.2
62247.9
62248.8
62249.9
62251.5
62253.2
62255.7
62258.5
62262.4
62267.2
62273.8
62282.5
62295.2
62313.6
62342.1
62384.3
62442.8
62512.3
62591.5
62682
62791.6
62929.6
63113.5
63361.6
63710.3
64033.7
64806.3
65953
68355.7
74946.1
103205
192418
493859
1.75742e+06
1.65925e+07
7613.78
20968.1
34082.6
45049
52870.8
57859.2
60525.5
61694.3
62131.5
62274.3
62315.7
62326.6
62329.3
62330.2
62330.7
62331.3
62331.9
62332.8
62333.9
62335.3
62337
62339.3
62342
62345.7
62350.3
62356.4
62364.3
62375.3
62390.1
62411.6
62441.6
62483.1
62535.6
62600.3
62677.9
62775.2
62899.1
63062.9
63283.3
63583.8
63866.7
64557.9
65681.8
68462.5
77007
113804
222668
563526
1.88179e+06
1.66987e+07
7615.35
20973.1
34092.5
45066.4
52904.6
57906.5
60576
61745
62182
62324.6
62365.8
62376.6
62379.3
62380.1
62380.6
62381.1
62381.7
62382.5
62383.4
62384.7
62386.3
62388.4
62391
62394.5
62398.8
62404.6
62411.8
62421.7
62434.6
62452.4
62476.2
62508.7
62550.4
62604.3
62671.2
62757.8
62868
63014.2
63208.1
63468.5
63730.8
64356.1
65546.5
68954
80077.9
115902
224742
551136
1.76874e+06
1.19992e+07
7616.72
20977.1
34099.8
45078.1
52931.3
57940.8
60607.9
61773.8
62209.4
62351.4
62392.5
62403.2
62405.8
62406.6
62407
62407.5
62408
62408.8
62409.6
62410.8
62412.3
62414.3
62416.7
62420
62424.1
62429.5
62436.3
62445.5
62457.2
62473.1
62493.6
62521.3
62556.7
62603.6
62662.4
62740
62838.2
62968.4
63138.2
63365.6
63612.5
64211.9
65561.7
69805.3
83739.8
126829
249687
597037
1.85898e+06
1.22855e+07
7617.89
20980.2
34104.8
45085
52953.3
57967.8
60628.8
61789.8
62223.2
62364.5
62405.4
62416
62418.6
62419.4
62419.8
62420.2
62420.7
62421.3
62422.2
62423.3
62424.7
62426.6
62428.9
62432.1
62435.9
62441.1
62447.6
62456.3
62467.2
62481.8
62500.4
62525.3
62556.8
62598.8
62651.2
62721.4
62808.1
62926.8
63068.3
63284.3
63524.7
64133.4
65756
71041.5
88039.1
138432
274566
637227
1.89814e+06
1.23032e+07
7618.86
20982.6
34108.1
45087.8
52973.4
57992.2
60644.5
61799.4
62230.4
62370.9
62411.5
62422.1
62424.6
62425.4
62425.8
62426.2
62426.6
62427.3
62428.1
62429.2
62430.5
62432.4
62434.6
62437.6
62441.4
62446.4
62452.6
62460.9
62471.3
62485.1
62502.5
62525.6
62554.5
62592.9
62640.5
62704.6
62782.4
62890.8
63016.8
63214.5
63588.1
64489.3
67280.6
76314.5
103758
180253
379723
926644
2.95538e+06
1.79872e+07
7619.75
20984.9
34110.9
45088.2
52995.2
58018.3
60659.7
61808.1
62236.5
62376.2
62416.6
62427.1
62429.7
62430.4
62430.8
62431.2
62431.7
62432.3
62433.2
62434.2
62435.6
62437.4
62439.7
62442.6
62446.3
62451.2
62457.3
62465.3
62475.4
62488.6
62505.1
62526.8
62553.9
62589.4
62633.5
62691.3
62762.5
62855.8
62976.3
63154.1
63521.8
64514.9
67711.1
77915.2
108205
190381
399318
962302
3.02829e+06
1.79872e+07
7621.12
20989.6
34118.3
45092.9
53027
58055.4
60684.1
61826
62252.1
62391
62431.2
62441.6
62444.3
62445
62445.5
62445.9
62446.5
62447.2
62448.1
62449.3
62450.8
62452.7
62455.1
62458.2
62462.1
62467
62473.3
62481.3
62491.4
62504.4
62520.6
62541.5
62567.6
62601.1
62642.5
62695.7
62761
62844.5
62953.8
63118.3
63492.5
64556.9
68025.3
79019.7
111129
196489
409216
974754
3.04013e+06
1.79872e+07
7625.55
21007.7
34150.9
45131
53100.9
58137.2
60753.3
61889.4
62313.5
62451.7
62491.8
62502.4
62505.2
62506.1
62506.8
62507.5
62508.4
62509.5
62510.9
62512.5
62514.5
62517
62520.1
62523.9
62528.6
62534.4
62541.7
62550.8
62562.1
62576.2
62593.8
62615.8
62643.1
62677.1
62719.1
62771.1
62835.3
62914.3
63019.7
63181.9
63557.1
64680.3
68371.7
79984.9
113475
201138
416333
983048
3.04735e+06
1.79872e+07
7643.36
21082.2
34287.8
45314
53338.1
58391.7
61000.9
62133.5
62556.1
62694.1
62734.4
62745.5
62748.9
62750.7
62752.2
62753.9
62756
62758.3
62761.2
62764.5
62768.5
62773.1
62778.7
62785.2
62793.1
62802.5
62813.8
62827.3
62843.7
62863.3
62887.3
62915.9
62950.8
62992.5
63043.2
63103.5
63176.8
63263.7
63377.7
63550.7
63948.1
65134.1
69013
81116.3
115648
204945
421698
988838
3.05196e+06
1.79872e+07
7711.64
21365
34802.5
46012.6
54159.4
59263.8
61883.3
63017
63439.6
63578.2
63619.9
63632.8
63638.4
63642.5
63646.8
63651.7
63657.4
63663.9
63671.5
63680
63690.2
63701.6
63715
63730.3
63748.3
63768.7
63793
63820.6
63853.5
63890.9
63935.5
63986.5
64047.1
64116.4
64198.7
64292.1
64403
64528.8
64685.6
64904.7
65356.4
66627.9
70681.6
83172.6
118473
208902
426645
993995
3.05629e+06
1.79872e+07
7951.54
22341.3
36546.6
48338.8
56857.9
62114.3
64778.8
65922.7
66348.3
66489.8
66535.5
66553.3
66564.7
66575.3
66587.4
66600.9
66616.7
66634.4
66655.1
66678.1
66704.9
66734.9
66769.8
66808.7
66854.1
66904.7
66963.8
67029.6
67106.5
67192
67292
67403
67532.4
67675.7
67842.2
68025.2
68236.6
68468
68740.8
69079.9
69660.8
71070.2
75288.2
87996.1
123577
214193
431683
998257
3.0594e+06
1.79872e+07
8730.94
25441.7
41935.8
55391.6
64935.6
70563.9
73334.5
74502.2
74934.8
75083.1
75138.4
75167.6
75192.5
75218.7
75248.9
75282.7
75322.1
75366
75417.1
75473.8
75539.6
75612.6
75697.2
75790.8
75899.4
76019.3
76158.1
76311.1
76488.2
76682.7
76907.4
77153.2
77436.2
77744
78096.1
78476.1
78906.6
79367.2
79889
80481.1
81319.1
82957.5
87324.9
99957.7
134953
224014
438911
1.00288e+06
3.06234e+06
1.79872e+07
11141.1
34695
57391.5
75106.2
86710.4
93021.3
95961.8
97157.2
97596.4
97755.9
97829
97880
97931.4
97987.6
98053
98126.2
98211.2
98305.9
98415.4
98537
98677.6
98833
99012.6
99210.6
99439.1
99690.1
99979.4
100296
100660
101057
101513
102006
102568
103174
103859
104589
105405
106265
107216
108237
109498
111466
115904
127888
160647
244739
452080
1.00896e+06
3.06478e+06
1.79872e+07
18589
61214.6
98866.7
124749
139335
146432
149475
150646
151072
151242
151340
151424
151515
151616
151734
151866
152019
152189
152386
152604
152855
153132
153452
153802
154206
154648
155155
155708
156340
157025
157806
158645
159596
160610
161748
162948
164277
165659
167165
168730
170509
172821
177097
187501
215456
289083
480065
1.02053e+06
3.06778e+06
1.79872e+07
42915.1
135443
201460
237463
254352
261485
264241
265235
265601
265767
265888
266004
266137
266285
266458
266650
266874
267121
267408
267723
268088
268487
268949
269453
270033
270664
271388
272171
273067
274028
275123
276288
277607
278996
280551
282171
283956
285790
287771
289783
291968
294451
298198
306015
326407
382869
544134
1.04908e+06
3.0733e+06
1.79872e+07
131153
339810
442031
482857
497982
503363
505217
505853
506108
506254
506386
506525
506687
506867
507079
507312
507585
507884
508233
508614
509057
509538
510097
510701
511401
512153
513023
513951
515020
516152
517450
518811
520358
521965
523771
525624
527671
529742
531979
534206
536572
539010
542041
546999
558802
593511
709146
1.14088e+06
3.09477e+06
1.79872e+07
505013
937113
1.05572e+06
1.08607e+06
1.09423e+06
1.09659e+06
1.09733e+06
1.09761e+06
1.09777e+06
1.09791e+06
1.09806e+06
1.09823e+06
1.09843e+06
1.09865e+06
1.09891e+06
1.09919e+06
1.09953e+06
1.09989e+06
1.10031e+06
1.10077e+06
1.10132e+06
1.10189e+06
1.10258e+06
1.1033e+06
1.10415e+06
1.10505e+06
1.10611e+06
1.10721e+06
1.1085e+06
1.10984e+06
1.1114e+06
1.11299e+06
1.11485e+06
1.11672e+06
1.11886e+06
1.12101e+06
1.12342e+06
1.12579e+06
1.1284e+06
1.13092e+06
1.13361e+06
1.13619e+06
1.13897e+06
1.14213e+06
1.14755e+06
1.16228e+06
1.22137e+06
1.51458e+06
3.23498e+06
1.79872e+07
2.45242e+06
3.14923e+06
3.22498e+06
3.23453e+06
3.23619e+06
3.23665e+06
3.23689e+06
3.2371e+06
3.23734e+06
3.23759e+06
3.23791e+06
3.23825e+06
3.23867e+06
3.23911e+06
3.23966e+06
3.24023e+06
3.24094e+06
3.24166e+06
3.24257e+06
3.24348e+06
3.24463e+06
3.24578e+06
3.24722e+06
3.24865e+06
3.25045e+06
3.25222e+06
3.25444e+06
3.25661e+06
3.25932e+06
3.26194e+06
3.26519e+06
3.26831e+06
3.27215e+06
3.27579e+06
3.2802e+06
3.28434e+06
3.28925e+06
3.29382e+06
3.29908e+06
3.30391e+06
3.30925e+06
3.31408e+06
3.31917e+06
3.3237e+06
3.32845e+06
3.33392e+06
3.34896e+06
3.45049e+06
4.48373e+06
1.79872e+07
1.87595e+07
1.87595e+07
1.87595e+07
1.87595e+07
1.87595e+07
1.87595e+07
1.87595e+07
1.87595e+07
1.87595e+07
1.87595e+07
1.87595e+07
1.87595e+07
1.87595e+07
1.87595e+07
1.87595e+07
1.87595e+07
1.87595e+07
1.87595e+07
1.87595e+07
1.87595e+07
1.87595e+07
1.87595e+07
1.87595e+07
1.87595e+07
1.87595e+07
1.87595e+07
1.87595e+07
1.87595e+07
1.87595e+07
1.87595e+07
1.87595e+07
1.87595e+07
1.87595e+07
1.87595e+07
1.87595e+07
1.87595e+07
1.87595e+07
1.87595e+07
1.87595e+07
1.87595e+07
1.87595e+07
1.87595e+07
1.87595e+07
1.87595e+07
1.87595e+07
1.87595e+07
1.87595e+07
1.87595e+07
1.87595e+07
1.87595e+07
7.12552e+07
6.84506e+07
6.77582e+07
6.76773e+07
6.76672e+07
6.76661e+07
6.7666e+07
6.7666e+07
6.7666e+07
6.7666e+07
6.7666e+07
6.7666e+07
6.7666e+07
6.7666e+07
6.7666e+07
6.76659e+07
6.76645e+07
6.76541e+07
6.75711e+07
6.6813e+07
1.09218e+06
2.16929e+06
2.86356e+06
3.14501e+06
3.25263e+06
3.29517e+06
3.31245e+06
3.31956e+06
3.3225e+06
3.32371e+06
3.32421e+06
3.32442e+06
3.3245e+06
3.32453e+06
3.32455e+06
3.32454e+06
3.32446e+06
3.32385e+06
3.3192e+06
3.28946e+06
1.04434e+07
1.22196e+07
1.19774e+07
1.19407e+07
1.19434e+07
1.19476e+07
1.19499e+07
1.1951e+07
1.19514e+07
1.19516e+07
1.19517e+07
1.19517e+07
1.19517e+07
1.19517e+07
1.19517e+07
1.19516e+07
1.19506e+07
1.19425e+07
1.18801e+07
1.13895e+07
1.87595e+07
1.87595e+07
1.87595e+07
1.87595e+07
1.87595e+07
1.87595e+07
1.87595e+07
1.87595e+07
1.87595e+07
1.87595e+07
1.87595e+07
1.87595e+07
1.87595e+07
1.87595e+07
1.87595e+07
1.87595e+07
1.87595e+07
1.87595e+07
1.87595e+07
1.87595e+07
1.87595e+07
1.87595e+07
1.87595e+07
1.87595e+07
1.87595e+07
1.87595e+07
1.87595e+07
1.87595e+07
1.87595e+07
1.87595e+07
1.87595e+07
1.87595e+07
1.87595e+07
1.87595e+07
1.87595e+07
1.87595e+07
1.87595e+07
1.87595e+07
1.87595e+07
1.87595e+07
1.87595e+07
1.87595e+07
1.87595e+07
1.87595e+07
1.87595e+07
1.87595e+07
1.87595e+07
1.87595e+07
1.87595e+07
1.87595e+07
1.87595e+07
1.87595e+07
1.87595e+07
1.87595e+07
1.87595e+07
1.87595e+07
1.87595e+07
1.87595e+07
1.87595e+07
1.87595e+07
1.87595e+07
1.87595e+07
1.87595e+07
1.87595e+07
1.87595e+07
1.87595e+07
1.87595e+07
1.87595e+07
1.87595e+07
1.87595e+07
1.87595e+07
1.87595e+07
1.87595e+07
1.87595e+07
1.87595e+07
1.87595e+07
1.87595e+07
1.87595e+07
1.87595e+07
1.87595e+07
1.87595e+07
1.87595e+07
1.87595e+07
1.87595e+07
1.87595e+07
1.87595e+07
1.87595e+07
1.87595e+07
1.87595e+07
1.87595e+07
1.87595e+07
1.87595e+07
1.87595e+07
1.87595e+07
1.87595e+07
1.87595e+07
1.87595e+07
1.87595e+07
1.87595e+07
1.87595e+07
1.79872e+07
4.48059e+06
3.3468e+06
3.22671e+06
3.21054e+06
3.20817e+06
3.20847e+06
3.20952e+06
3.21088e+06
3.21236e+06
3.21389e+06
3.21543e+06
3.21693e+06
3.21839e+06
3.2198e+06
3.22113e+06
3.22238e+06
3.22356e+06
3.22465e+06
3.22566e+06
3.22658e+06
3.22743e+06
3.2282e+06
3.2289e+06
3.22953e+06
3.2301e+06
3.23061e+06
3.23108e+06
3.23149e+06
3.23186e+06
3.23218e+06
3.23249e+06
3.23274e+06
3.23299e+06
3.23318e+06
3.23338e+06
3.23353e+06
3.23369e+06
3.2338e+06
3.23393e+06
3.23402e+06
3.23412e+06
3.2342e+06
3.23426e+06
3.23434e+06
3.23437e+06
3.23446e+06
3.23445e+06
3.23456e+06
3.2345e+06
3.23465e+06
3.23454e+06
3.23471e+06
3.23457e+06
3.23475e+06
3.23461e+06
3.23481e+06
3.23465e+06
3.23484e+06
3.23468e+06
3.23484e+06
3.2347e+06
3.23484e+06
3.23472e+06
3.23483e+06
3.23474e+06
3.23482e+06
3.23475e+06
3.23481e+06
3.23476e+06
3.23481e+06
3.23477e+06
3.2348e+06
3.23478e+06
3.2348e+06
3.23478e+06
3.2348e+06
3.23479e+06
3.2348e+06
3.23479e+06
3.2348e+06
3.23479e+06
3.2348e+06
3.23479e+06
3.2348e+06
3.23479e+06
3.2348e+06
3.2348e+06
3.2348e+06
3.2348e+06
3.2348e+06
3.2348e+06
3.2348e+06
3.2348e+06
3.2348e+06
3.2348e+06
3.2348e+06
3.2348e+06
3.2348e+06
3.2348e+06
1.79872e+07
3.34081e+06
1.51398e+06
1.17375e+06
1.09459e+06
1.07269e+06
1.06635e+06
1.06528e+06
1.06613e+06
1.06773e+06
1.0696e+06
1.07154e+06
1.07348e+06
1.07536e+06
1.07716e+06
1.07888e+06
1.08049e+06
1.08201e+06
1.08341e+06
1.08472e+06
1.08591e+06
1.087e+06
1.088e+06
1.08891e+06
1.08972e+06
1.09047e+06
1.09113e+06
1.09173e+06
1.09226e+06
1.09275e+06
1.09317e+06
1.09356e+06
1.09389e+06
1.0942e+06
1.09446e+06
1.09471e+06
1.09491e+06
1.09511e+06
1.09527e+06
1.09542e+06
1.09555e+06
1.09567e+06
1.09577e+06
1.09586e+06
1.09595e+06
1.096e+06
1.0961e+06
1.09611e+06
1.09622e+06
1.09619e+06
1.09632e+06
1.09625e+06
1.09639e+06
1.0963e+06
1.09644e+06
1.09634e+06
1.09648e+06
1.09638e+06
1.0965e+06
1.09642e+06
1.09652e+06
1.09645e+06
1.09652e+06
1.09647e+06
1.09653e+06
1.09649e+06
1.09653e+06
1.0965e+06
1.09654e+06
1.09651e+06
1.09654e+06
1.09652e+06
1.09654e+06
1.09653e+06
1.09654e+06
1.09653e+06
1.09655e+06
1.09654e+06
1.09655e+06
1.09654e+06
1.09655e+06
1.09654e+06
1.09655e+06
1.09655e+06
1.09655e+06
1.09655e+06
1.09655e+06
1.09655e+06
1.09655e+06
1.09655e+06
1.09655e+06
1.09655e+06
1.09655e+06
1.09655e+06
1.09655e+06
1.09655e+06
1.09655e+06
1.09655e+06
1.09655e+06
1.09655e+06
1.79872e+07
3.22801e+06
1.19191e+06
710626
560263
504969
483572
476132
474639
475423
477047
478969
480941
482877
484743
486524
488206
489785
491255
492618
493871
495023
496071
497028
497891
498675
499377
500013
500578
501091
501541
501952
502308
502637
502917
503178
503397
503605
503776
503940
504074
504202
504311
504406
504502
504565
504657
504687
504784
504777
504879
504845
504952
504899
505004
504945
505040
504984
505066
505017
505084
505044
505098
505066
505108
505084
505116
505098
505123
505109
505128
505118
505132
505124
505135
505129
505137
505134
505139
505137
505141
505139
505142
505141
505143
505142
505144
505144
505145
505144
505145
505145
505146
505146
505146
505146
505147
505147
505147
505147
1.79872e+07
3.21755e+06
1.12779e+06
584971
386827
300866
262384
246564
241323
240594
241408
242818
244397
245982
247523
249000
250402
251724
252960
254110
255171
256149
257042
257859
258598
259270
259874
260421
260909
261351
261742
262096
262406
262690
262934
263160
263351
263531
263680
263822
263940
264051
264145
264229
264310
264368
264443
264477
264553
264558
264635
264618
264697
264667
264741
264706
264773
264740
264796
264767
264813
264790
264827
264808
264837
264823
264845
264834
264851
264843
264856
264851
264860
264856
264863
264860
264866
264864
264868
264866
264869
264868
264870
264870
264871
264871
264872
264872
264873
264873
264873
264873
264874
264874
264874
264874
264875
264875
264875
264875
1.79872e+07
3.21951e+06
1.11502e+06
549049
326464
220885
169698
146903
138188
135685
135596
136235
137172
138166
139147
140095
141000
141859
142666
143421
144121
144768
145361
145906
146400
146851
147257
147626
147955
148254
148518
148759
148969
149162
149328
149482
149612
149735
149837
149934
150014
150090
150154
150212
150266
150308
150357
150383
150432
150439
150489
150480
150530
150513
150560
150540
150582
150563
150598
150582
150610
150597
150619
150609
150627
150619
150632
150627
150637
150633
150641
150638
150643
150641
150646
150644
150647
150646
150649
150648
150650
150649
150651
150650
150651
150651
150652
150652
150653
150653
150653
150653
150653
150653
150654
150654
150654
150654
150654
150654
1.79872e+07
3.22524e+06
1.1142e+06
540160
307033
191486
133031
105860
94766.7
90953.2
90028.2
90098.4
90464.3
90933.7
91417.7
91892.6
92350.9
92789
93204
93594.6
93959.2
94298.1
94610.6
94898.3
95160.8
95400.8
95617.8
95815.3
95992.3
96153.1
96295.9
96425.7
96539.8
96643.9
96734.3
96817.6
96888.7
96955.1
97010.8
97063.6
97107.1
97148.8
97183.3
97215.6
97244.2
97267.9
97293.9
97308.8
97335.2
97339.8
97366.8
97362.2
97389.1
97380
97405.4
97395
97417.2
97407.5
97425.9
97417.8
97432.6
97426.1
97437.7
97432.8
97441.8
97438.1
97445
97442.3
97447.5
97445.6
97449.5
97448.1
97451
97450.1
97452.3
97451.6
97453.3
97452.8
97454
97453.7
97454.7
97454.5
97455.2
97455.1
97455.6
97455.5
97455.9
97455.9
97456.2
97456.2
97456.4
97456.4
97456.6
97456.6
97456.7
97456.7
97456.9
97456.8
97457
97457.1
1.79872e+07
3.23177e+06
1.11679e+06
539711
302709
182855
120671
91017
78479
73837.8
72385.3
72067.4
72107.2
72248.6
72424
72604.9
72784.1
72958.8
73127.1
73287.9
73439.9
73582.8
73715.8
73839.3
73952.8
74057.2
74152.2
74239
74317.2
74388.5
74452
74509.8
74560.8
74607.5
74648.1
74685.5
74717.5
74747.5
74772.5
74796.4
74816
74835
74850.4
74865.3
74878
74889.1
74900.6
74907.8
74919.6
74921.9
74934.4
74931.8
74944.4
74939.8
74951.6
74946.7
74956.8
74952.4
74960.7
74957.1
74963.7
74961
74966.1
74964
74967.9
74966.4
74969.4
74968.3
74970.6
74969.8
74971.5
74970.9
74972.2
74971.8
74972.8
74972.5
74973.2
74973
74973.6
74973.5
74973.9
74973.8
74974.1
74974.1
74974.3
74974.3
74974.4
74974.4
74974.6
74974.6
74974.7
74974.7
74974.7
74974.7
74974.8
74974.8
74974.9