/*--------------------------------*- C++ -*----------------------------------*\
| =========                 |                                                 |
| \\      /  F ield         | foam-extend: Open Source CFD                    |
|  \\    /   O peration     | Version:     4.0                                |
|   \\  /    A nd           | Web:         http://www.foam-extend.org         |
|    \\/     M anipulation  |                                                 |
\*---------------------------------------------------------------------------*/
FoamFile
{
    version     2.0;
    format      ascii;
    class       volScalarField;
    location    "4e-05";
    object      pd;
}
// * * * * * * * * * * * * * * * * * * * * * * * * * * * * * * * * * * * * * //

dimensions      [1 -1 -2 0 0 0 0];

internalField   nonuniform List<scalar> 
28770
(
1.04267e+07
1.0201e+07
1.06506e+07
9.98074e+06
1.08653e+07
9.77311e+06
1.1064e+07
9.58454e+06
1.12407e+07
9.42049e+06
1.13905e+07
9.28517e+06
1.15098e+07
9.18143e+06
1.15965e+07
9.11064e+06
1.165e+07
9.07271e+06
1.16708e+07
9.06624e+06
1.16611e+07
9.08865e+06
1.16236e+07
9.13642e+06
1.15623e+07
9.20537e+06
1.14813e+07
9.29089e+06
1.13853e+07
9.38824e+06
1.12788e+07
9.49277e+06
1.11661e+07
9.60016e+06
1.10511e+07
9.70662e+06
1.09372e+07
9.80914e+06
1.08272e+07
9.9056e+06
1.07229e+07
9.99501e+06
1.06254e+07
1.00775e+07
1.05352e+07
1.01544e+07
1.04517e+07
1.02277e+07
1.03739e+07
1.03e+07
1.04265e+07
1.02008e+07
1.06503e+07
9.98064e+06
1.0865e+07
9.77313e+06
1.10637e+07
9.58471e+06
1.12405e+07
9.42086e+06
1.13904e+07
9.28584e+06
1.151e+07
9.1825e+06
1.15971e+07
9.11226e+06
1.16511e+07
9.07508e+06
1.16728e+07
9.06964e+06
1.16643e+07
9.09346e+06
1.16286e+07
9.14318e+06
1.15698e+07
9.21482e+06
1.14923e+07
9.30405e+06
1.1401e+07
9.4065e+06
1.13008e+07
9.51795e+06
1.11964e+07
9.63459e+06
1.10923e+07
9.75311e+06
1.09922e+07
9.87075e+06
1.08987e+07
9.98521e+06
1.08132e+07
1.00946e+07
1.07357e+07
1.01972e+07
1.06645e+07
1.02919e+07
1.05966e+07
1.03782e+07
1.05284e+07
1.04566e+07
1.0427e+07
1.02012e+07
1.06508e+07
9.98097e+06
1.08655e+07
9.7733e+06
1.10641e+07
9.58466e+06
1.12406e+07
9.42049e+06
1.13902e+07
9.28501e+06
1.15092e+07
9.18103e+06
1.15954e+07
9.10989e+06
1.16481e+07
9.07147e+06
1.16678e+07
9.0643e+06
1.16565e+07
9.08571e+06
1.16169e+07
9.13204e+06
1.15526e+07
9.19891e+06
1.14677e+07
9.28144e+06
1.13663e+07
9.37448e+06
1.12528e+07
9.47289e+06
1.11309e+07
9.57176e+06
1.10044e+07
9.66672e+06
1.08762e+07
9.75431e+06
1.07492e+07
9.83246e+06
1.06259e+07
9.90099e+06
1.05087e+07
9.96184e+06
1.03999e+07
1.00188e+07
1.03017e+07
1.00769e+07
1.02155e+07
1.01412e+07
1.04263e+07
1.02007e+07
1.065e+07
9.98066e+06
1.08646e+07
9.77332e+06
1.10633e+07
9.58514e+06
1.124e+07
9.4216e+06
1.139e+07
9.28698e+06
1.15096e+07
9.18418e+06
1.15969e+07
9.11466e+06
1.16513e+07
9.07845e+06
1.16736e+07
9.0743e+06
1.16659e+07
9.09985e+06
1.16315e+07
9.1519e+06
1.15745e+07
9.22666e+06
1.14997e+07
9.32009e+06
1.14121e+07
9.42813e+06
1.13172e+07
9.54701e+06
1.12203e+07
9.6734e+06
1.11262e+07
9.80449e+06
1.10392e+07
9.93785e+06
1.09626e+07
1.00711e+07
1.08972e+07
1.02014e+07
1.08419e+07
1.03251e+07
1.07928e+07
1.04383e+07
1.07439e+07
1.05377e+07
1.06886e+07
1.0621e+07
1.04272e+07
1.02015e+07
1.0651e+07
9.98132e+06
1.08655e+07
9.77368e+06
1.1064e+07
9.58506e+06
1.12403e+07
9.42088e+06
1.13896e+07
9.28537e+06
1.15081e+07
9.18133e+06
1.15937e+07
9.11007e+06
1.16455e+07
9.07147e+06
1.1664e+07
9.06399e+06
1.16509e+07
9.08491e+06
1.16089e+07
9.13046e+06
1.15413e+07
9.19607e+06
1.14521e+07
9.27659e+06
1.1345e+07
9.36647e+06
1.12241e+07
9.45999e+06
1.10927e+07
9.55149e+06
1.0954e+07
9.6357e+06
1.08108e+07
9.70831e+06
1.06657e+07
9.76682e+06
1.05217e+07
9.81158e+06
1.03827e+07
9.84654e+06
1.02532e+07
9.87871e+06
1.01384e+07
9.91696e+06
1.00432e+07
9.96985e+06
1.0426e+07
1.02006e+07
1.06496e+07
9.98079e+06
1.08641e+07
9.77369e+06
1.10627e+07
9.58581e+06
1.12393e+07
9.42265e+06
1.13892e+07
9.28853e+06
1.15088e+07
9.18638e+06
1.15961e+07
9.11772e+06
1.16505e+07
9.08265e+06
1.1673e+07
9.08e+06
1.16657e+07
9.10753e+06
1.16319e+07
9.16218e+06
1.1576e+07
9.24037e+06
1.15027e+07
9.33828e+06
1.14177e+07
9.45219e+06
1.13265e+07
9.57872e+06
1.12353e+07
9.71508e+06
1.11498e+07
9.8591e+06
1.10754e+07
1.00091e+07
1.10163e+07
1.0163e+07
1.09738e+07
1.03173e+07
1.09453e+07
1.04656e+07
1.09245e+07
1.0601e+07
1.09014e+07
1.07158e+07
1.08645e+07
1.08041e+07
1.04275e+07
1.02019e+07
1.06511e+07
9.98179e+06
1.08655e+07
9.77425e+06
1.10637e+07
9.58573e+06
1.12398e+07
9.42166e+06
1.13887e+07
9.28626e+06
1.15067e+07
9.18234e+06
1.15916e+07
9.11122e+06
1.16423e+07
9.07276e+06
1.16594e+07
9.06543e+06
1.16444e+07
9.08646e+06
1.15999e+07
9.13202e+06
1.15289e+07
9.19742e+06
1.14352e+07
9.27727e+06
1.13224e+07
9.36562e+06
1.11939e+07
9.45611e+06
1.10529e+07
9.54211e+06
1.09018e+07
9.61699e+06
1.07427e+07
9.67478e+06
1.05777e+07
9.71154e+06
1.04099e+07
9.72751e+06
1.02447e+07
9.72904e+06
1.00892e+07
9.72749e+06
9.95278e+06
9.73767e+06
9.84546e+06
9.77399e+06
1.04258e+07
1.02006e+07
1.06492e+07
9.98102e+06
1.08635e+07
9.77421e+06
1.10619e+07
9.58667e+06
1.12383e+07
9.42396e+06
1.1388e+07
9.29041e+06
1.15074e+07
9.18901e+06
1.15945e+07
9.12132e+06
1.16487e+07
9.08751e+06
1.1671e+07
9.08652e+06
1.16635e+07
9.11621e+06
1.16297e+07
9.17367e+06
1.15737e+07
9.25547e+06
1.15007e+07
9.35801e+06
1.14163e+07
9.47784e+06
1.13267e+07
9.61194e+06
1.12387e+07
9.75806e+06
1.11593e+07
9.91494e+06
1.10958e+07
1.00822e+07
1.10548e+07
1.02595e+07
1.10393e+07
1.04433e+07
1.10452e+07
1.06233e+07
1.10633e+07
1.07881e+07
1.10776e+07
1.09244e+07
1.10684e+07
1.10195e+07
1.04277e+07
1.02023e+07
1.06512e+07
9.98235e+06
1.08654e+07
9.77498e+06
1.10634e+07
9.58664e+06
1.12391e+07
9.42278e+06
1.13876e+07
9.28763e+06
1.1505e+07
9.18402e+06
1.15891e+07
9.11329e+06
1.16388e+07
9.07533e+06
1.16544e+07
9.06864e+06
1.16374e+07
9.09046e+06
1.15903e+07
9.13698e+06
1.15159e+07
9.20345e+06
1.14177e+07
9.28433e+06
1.12992e+07
9.37338e+06
1.11635e+07
9.46362e+06
1.10132e+07
9.54724e+06
1.085e+07
9.6157e+06
1.06748e+07
9.6601e+06
1.0488e+07
9.67299e+06
1.02918e+07
9.65261e+06
1.00936e+07
9.60878e+06
9.90274e+06
9.55873e+06
9.7342e+06
9.5269e+06
9.60769e+06
9.53822e+06
1.04256e+07
1.02006e+07
1.06488e+07
9.98133e+06
1.08629e+07
9.77483e+06
1.1061e+07
9.58768e+06
1.12371e+07
9.42546e+06
1.13865e+07
9.29254e+06
1.15056e+07
9.19195e+06
1.15923e+07
9.12531e+06
1.1646e+07
9.09287e+06
1.16677e+07
9.09366e+06
1.16594e+07
9.12565e+06
1.16246e+07
9.18605e+06
1.15674e+07
9.27159e+06
1.14929e+07
9.37883e+06
1.14069e+07
9.50449e+06
1.13159e+07
9.64576e+06
1.12272e+07
9.8008e+06
1.11495e+07
9.96927e+06
1.10931e+07
1.01531e+07
1.10693e+07
1.03561e+07
1.10865e+07
1.0579e+07
1.11375e+07
1.08013e+07
1.12109e+07
1.1009e+07
1.12825e+07
1.1179e+07
1.13171e+07
1.12859e+07
1.0428e+07
1.02027e+07
1.06512e+07
9.98299e+06
1.08652e+07
9.77584e+06
1.10629e+07
9.58774e+06
1.12383e+07
9.42418e+06
1.13863e+07
9.28941e+06
1.15031e+07
9.18629e+06
1.15864e+07
9.1162e+06
1.1635e+07
9.07909e+06
1.16491e+07
9.07353e+06
1.16302e+07
9.09686e+06
1.15804e+07
9.14536e+06
1.15027e+07
9.21435e+06
1.14002e+07
9.29835e+06
1.12763e+07
9.39099e+06
1.11339e+07
9.48487e+06
1.09753e+07
9.57114e+06
1.08016e+07
9.63889e+06
1.06116e+07
9.67462e+06
1.04022e+07
9.6633e+06
1.01711e+07
9.59555e+06
9.93087e+06
9.48862e+06
9.68979e+06
9.36583e+06
9.46957e+06
9.26778e+06
9.30887e+06
9.23986e+06
1.04254e+07
1.02007e+07
1.06483e+07
9.98169e+06
1.08621e+07
9.77553e+06
1.106e+07
9.5888e+06
1.12358e+07
9.42709e+06
1.13848e+07
9.29482e+06
1.15034e+07
9.19508e+06
1.15895e+07
9.12954e+06
1.16424e+07
9.09853e+06
1.16631e+07
9.10117e+06
1.16535e+07
9.13555e+06
1.16168e+07
9.19902e+06
1.15571e+07
9.28843e+06
1.14793e+07
9.40044e+06
1.1389e+07
9.53181e+06
1.12926e+07
9.67967e+06
1.11978e+07
9.84204e+06
1.11143e+07
1.00188e+07
1.10561e+07
1.02143e+07
1.10436e+07
1.04415e+07
1.11024e+07
1.07218e+07
1.12114e+07
1.09998e+07
1.13651e+07
1.12723e+07
1.15286e+07
1.15007e+07
1.16355e+07
1.16314e+07
1.04282e+07
1.02032e+07
1.06512e+07
9.98367e+06
1.08649e+07
9.77678e+06
1.10624e+07
9.58898e+06
1.12374e+07
9.4258e+06
1.13849e+07
9.2915e+06
1.15012e+07
9.189e+06
1.15836e+07
9.11976e+06
1.16311e+07
9.08381e+06
1.16437e+07
9.07985e+06
1.16229e+07
9.10537e+06
1.15705e+07
9.15685e+06
1.14895e+07
9.2299e+06
1.13829e+07
9.31929e+06
1.1254e+07
9.41893e+06
1.11057e+07
9.52153e+06
1.09405e+07
9.61783e+06
1.07594e+07
9.69509e+06
1.05597e+07
9.7342e+06
1.03311e+07
9.70555e+06
1.00544e+07
9.57222e+06
9.76419e+06
9.37837e+06
9.45166e+06
9.14297e+06
9.14207e+06
8.93475e+06
8.91586e+06
8.84192e+06
1.04252e+07
1.02008e+07
1.06479e+07
9.98207e+06
1.08614e+07
9.77626e+06
1.10589e+07
9.58995e+06
1.12344e+07
9.42876e+06
1.13829e+07
9.29715e+06
1.1501e+07
9.19826e+06
1.15863e+07
9.13383e+06
1.16383e+07
9.10427e+06
1.16575e+07
9.10881e+06
1.1646e+07
9.14565e+06
1.16067e+07
9.2123e+06
1.15433e+07
9.30573e+06
1.14604e+07
9.42271e+06
1.13629e+07
9.55994e+06
1.12567e+07
9.71415e+06
1.11486e+07
9.88225e+06
1.10481e+07
1.00619e+07
1.09701e+07
1.02551e+07
1.09463e+07
1.04846e+07
1.10692e+07
1.08735e+07
1.12443e+07
1.12094e+07
1.15134e+07
1.15837e+07
1.18337e+07
1.19217e+07
1.20656e+07
1.21038e+07
1.04284e+07
1.02036e+07
1.06512e+07
9.98436e+06
1.08647e+07
9.77774e+06
1.10618e+07
9.59028e+06
1.12365e+07
9.42751e+06
1.13836e+07
9.29376e+06
1.14992e+07
9.19199e+06
1.15808e+07
9.12375e+06
1.16272e+07
9.08919e+06
1.16385e+07
9.08718e+06
1.16157e+07
9.11545e+06
1.15609e+07
9.1708e+06
1.14767e+07
9.24927e+06
1.13661e+07
9.34624e+06
1.12324e+07
9.45639e+06
1.10788e+07
9.57341e+06
1.09086e+07
9.68919e+06
1.07247e+07
9.79185e+06
1.05272e+07
9.86055e+06
1.03003e+07
9.84779e+06
9.9467e+06
9.60528e+06
9.61535e+06
9.30468e+06
9.20693e+06
8.88988e+06
8.73067e+06
8.48677e+06
8.3728e+06
8.27994e+06
1.04251e+07
1.02009e+07
1.06474e+07
9.98246e+06
1.08607e+07
9.77699e+06
1.10579e+07
9.59107e+06
1.1233e+07
9.43038e+06
1.1381e+07
9.29941e+06
1.14984e+07
9.20134e+06
1.15829e+07
9.13799e+06
1.16338e+07
9.10986e+06
1.16514e+07
9.11628e+06
1.16376e+07
9.15561e+06
1.1595e+07
9.22552e+06
1.1527e+07
9.32318e+06
1.14374e+07
9.44554e+06
1.13303e+07
9.58935e+06
1.12102e+07
9.75095e+06
1.10821e+07
9.92556e+06
1.09516e+07
1.01053e+07
1.08245e+07
1.02733e+07
1.07014e+07
1.03846e+07
1.01198e+07
1.08428e+07
1.08973e+07
1.0943e+07
1.10665e+07
1.12023e+07
1.13617e+07
1.14899e+07
1.15998e+07
1.16596e+07
1.04286e+07
1.02041e+07
1.06512e+07
9.98502e+06
1.08644e+07
9.77867e+06
1.10612e+07
9.59155e+06
1.12356e+07
9.4292e+06
1.13822e+07
9.29602e+06
1.14973e+07
9.19502e+06
1.15782e+07
9.12785e+06
1.16236e+07
9.09481e+06
1.16336e+07
9.09494e+06
1.1609e+07
9.1263e+06
1.15518e+07
9.18608e+06
1.14645e+07
9.27095e+06
1.13499e+07
9.37714e+06
1.12111e+07
9.50063e+06
1.10517e+07
9.63702e+06
1.08761e+07
9.78128e+06
1.06916e+07
9.92742e+06
1.05134e+07
1.00695e+07
1.03845e+07
1.02119e+07
9.99758e+06
1.08005e+07
1.08391e+07
1.09088e+07
1.1048e+07
1.12655e+07
1.14681e+07
1.16419e+07
1.178e+07
1.18613e+07
1.04249e+07
1.0201e+07
1.06471e+07
9.98283e+06
1.086e+07
9.77765e+06
1.10569e+07
9.5921e+06
1.12317e+07
9.43186e+06
1.13792e+07
9.30148e+06
1.1496e+07
9.20417e+06
1.15797e+07
9.14182e+06
1.16293e+07
9.11503e+06
1.16452e+07
9.12325e+06
1.1629e+07
9.16499e+06
1.15829e+07
9.23815e+06
1.15097e+07
9.3402e+06
1.14125e+07
9.46845e+06
1.12943e+07
9.6201e+06
1.1158e+07
9.79194e+06
1.1006e+07
9.97947e+06
1.08406e+07
1.01746e+07
1.06641e+07
1.03605e+07
1.04788e+07
1.0502e+07
9.95734e+06
1.07171e+07
1.07346e+07
1.0793e+07
1.0941e+07
1.13324e+07
1.15939e+07
1.18214e+07
1.20089e+07
1.21261e+07
1.04288e+07
1.02044e+07
1.06511e+07
9.9856e+06
1.08641e+07
9.77951e+06
1.10608e+07
9.5927e+06
1.12348e+07
9.43076e+06
1.13811e+07
9.29811e+06
1.14957e+07
9.19785e+06
1.15759e+07
9.13173e+06
1.16204e+07
9.10016e+06
1.16292e+07
9.10244e+06
1.1603e+07
9.13691e+06
1.15436e+07
9.20125e+06
1.14533e+07
9.29279e+06
1.13346e+07
9.40885e+06
1.11902e+07
9.54694e+06
1.10232e+07
9.70505e+06
1.08373e+07
9.88173e+06
1.06389e+07
1.0076e+07
1.04404e+07
1.02871e+07
1.02677e+07
1.05126e+07
9.89316e+06
1.05881e+07
1.05737e+07
1.05749e+07
1.0586e+07
1.00714e+07
9.82131e+06
9.64638e+06
9.50185e+06
9.41132e+06
1.04248e+07
1.02011e+07
1.06467e+07
9.98315e+06
1.08595e+07
9.77823e+06
1.10561e+07
9.59298e+06
1.12305e+07
9.43313e+06
1.13777e+07
9.30324e+06
1.14939e+07
9.20659e+06
1.15767e+07
9.14511e+06
1.16252e+07
9.11949e+06
1.16396e+07
9.1293e+06
1.1621e+07
9.17325e+06
1.15715e+07
9.24946e+06
1.14932e+07
9.35579e+06
1.13885e+07
9.49013e+06
1.12592e+07
9.65058e+06
1.11062e+07
9.8354e+06
1.09294e+07
1.00426e+07
1.07276e+07
1.02689e+07
1.0499e+07
1.05067e+07
1.02446e+07
1.07396e+07
9.8492e+06
1.04331e+07
1.038e+07
1.03301e+07
1.02797e+07
1.01659e+07
9.92034e+06
9.64643e+06
9.36463e+06
9.16778e+06
1.04289e+07
1.02047e+07
1.06511e+07
9.98608e+06
1.08639e+07
9.7802e+06
1.10603e+07
9.59365e+06
1.12341e+07
9.43205e+06
1.13801e+07
9.29986e+06
1.14943e+07
9.20024e+06
1.1574e+07
9.13502e+06
1.16178e+07
9.10476e+06
1.16256e+07
9.10893e+06
1.15981e+07
9.14618e+06
1.15368e+07
9.21464e+06
1.14437e+07
9.31233e+06
1.1321e+07
9.43758e+06
1.11708e+07
9.58954e+06
1.09948e+07
9.76866e+06
1.07945e+07
9.97727e+06
1.05715e+07
1.02199e+07
1.03282e+07
1.05031e+07
1.00694e+07
1.08317e+07
9.78268e+06
1.02559e+07
1.01657e+07
1.00694e+07
9.97369e+06
1.03113e+07
1.00815e+07
9.69785e+06
9.18979e+06
8.86138e+06
1.04247e+07
1.02012e+07
1.06465e+07
9.98339e+06
1.0859e+07
9.77867e+06
1.10555e+07
9.59366e+06
1.12296e+07
9.4341e+06
1.13764e+07
9.30459e+06
1.14922e+07
9.20845e+06
1.15744e+07
9.14765e+06
1.1622e+07
9.12295e+06
1.16351e+07
9.13404e+06
1.16146e+07
9.17978e+06
1.15621e+07
9.25854e+06
1.14796e+07
9.36858e+06
1.13685e+07
9.50843e+06
1.12294e+07
9.67732e+06
1.10617e+07
9.87554e+06
1.08625e+07
1.01049e+07
1.06263e+07
1.03691e+07
1.03441e+07
1.06744e+07
1.00047e+07
1.10304e+07
9.72745e+06
1.00713e+07
9.94048e+06
9.79286e+06
9.63763e+06
1.05462e+07
1.04242e+07
1.00357e+07
8.89906e+06
8.44912e+06
1.0429e+07
1.02049e+07
1.06511e+07
9.98642e+06
1.08638e+07
9.78069e+06
1.106e+07
9.59433e+06
1.12337e+07
9.43298e+06
1.13794e+07
9.30112e+06
1.14933e+07
9.20197e+06
1.15727e+07
9.13742e+06
1.1616e+07
9.10813e+06
1.1623e+07
9.11372e+06
1.15945e+07
9.15307e+06
1.15317e+07
9.22468e+06
1.14366e+07
9.32709e+06
1.13107e+07
9.45951e+06
1.11554e+07
9.62243e+06
1.09711e+07
9.81849e+06
1.07564e+07
1.00535e+07
1.05075e+07
1.03382e+07
1.02155e+07
1.06895e+07
9.86359e+06
1.11337e+07
9.67099e+06
9.88765e+06
9.71655e+06
9.51055e+06
9.27244e+06
1.08477e+07
1.09452e+07
1.11254e+07
9.91679e+06
1.12022e+07
1.04246e+07
1.02012e+07
1.06463e+07
9.98355e+06
1.08588e+07
9.77895e+06
1.10551e+07
9.59409e+06
1.1229e+07
9.43472e+06
1.13757e+07
9.30545e+06
1.14911e+07
9.20962e+06
1.15729e+07
9.14926e+06
1.16199e+07
9.12516e+06
1.16321e+07
9.13708e+06
1.16103e+07
9.184e+06
1.1556e+07
9.26448e+06
1.14706e+07
9.37708e+06
1.13551e+07
9.52086e+06
1.12094e+07
9.69596e+06
1.10314e+07
9.90443e+06
1.08162e+07
1.01514e+07
1.05541e+07
1.04471e+07
1.02289e+07
1.08108e+07
9.81328e+06
1.12782e+07
9.64325e+06
9.72259e+06
9.5136e+06
9.24897e+06
8.91729e+06
1.11447e+07
1.14212e+07
1.17676e+07
1.03436e+07
1.06092e+07
1.04291e+07
1.02051e+07
1.06511e+07
9.98662e+06
1.08637e+07
9.78096e+06
1.10599e+07
9.59468e+06
1.12335e+07
9.43344e+06
1.13791e+07
9.30174e+06
1.14928e+07
9.20281e+06
1.15719e+07
9.13857e+06
1.16149e+07
9.10974e+06
1.16215e+07
9.11605e+06
1.15924e+07
9.15647e+06
1.15287e+07
9.22971e+06
1.14323e+07
9.33464e+06
1.13044e+07
9.47094e+06
1.1146e+07
9.63993e+06
1.09565e+07
9.84556e+06
1.07328e+07
1.0096e+07
1.04671e+07
1.0406e+07
1.01433e+07
1.08013e+07
9.72947e+06
1.13268e+07
9.64014e+06
9.59043e+06
9.35497e+06
9.04508e+06
8.63569e+06
1.13835e+07
1.17984e+07
1.23438e+07
9.37862e+06
9.16706e+06
1.04246e+07
1.02012e+07
1.06462e+07
9.98357e+06
1.08586e+07
9.77903e+06
1.10549e+07
9.59423e+06
1.12288e+07
9.43495e+06
1.13754e+07
9.3058e+06
1.14907e+07
9.21012e+06
1.15724e+07
9.14995e+06
1.16193e+07
9.12611e+06
1.16312e+07
9.13839e+06
1.1609e+07
9.18581e+06
1.15541e+07
9.26699e+06
1.14677e+07
9.38061e+06
1.13508e+07
9.52592e+06
1.12027e+07
9.70345e+06
1.10211e+07
9.91591e+06
1.07998e+07
1.01698e+07
1.05278e+07
1.0478e+07
1.01853e+07
1.08654e+07
9.73776e+06
1.13793e+07
9.68579e+06
9.50267e+06
9.25841e+06
8.93181e+06
8.48941e+06
1.15231e+07
1.19959e+07
1.26405e+07
8.66082e+06
8.25529e+06
1.04291e+07
1.02051e+07
1.06511e+07
9.98662e+06
1.08637e+07
9.78096e+06
1.10599e+07
9.59468e+06
1.12335e+07
9.43344e+06
1.13791e+07
9.30174e+06
1.14928e+07
9.20281e+06
1.15719e+07
9.13857e+06
1.16149e+07
9.10974e+06
1.16215e+07
9.11605e+06
1.15924e+07
9.15647e+06
1.15287e+07
9.22971e+06
1.14323e+07
9.33464e+06
1.13044e+07
9.47094e+06
1.1146e+07
9.63993e+06
1.09565e+07
9.84556e+06
1.07328e+07
1.0096e+07
1.04671e+07
1.0406e+07
1.01433e+07
1.08013e+07
9.72947e+06
1.13268e+07
9.76698e+06
9.46909e+06
9.23941e+06
8.93334e+06
8.52017e+06
1.1538e+07
1.19576e+07
1.24923e+07
8.41091e+06
8.16137e+06
1.04246e+07
1.02012e+07
1.06463e+07
9.98355e+06
1.08588e+07
9.77895e+06
1.10551e+07
9.59409e+06
1.1229e+07
9.43472e+06
1.13757e+07
9.30545e+06
1.14911e+07
9.20962e+06
1.15729e+07
9.14926e+06
1.16199e+07
9.12516e+06
1.16321e+07
9.13708e+06
1.16103e+07
9.184e+06
1.1556e+07
9.26448e+06
1.14706e+07
9.37708e+06
1.13551e+07
9.52086e+06
1.12094e+07
9.69596e+06
1.10314e+07
9.90443e+06
1.08162e+07
1.01514e+07
1.05541e+07
1.04471e+07
1.02289e+07
1.08108e+07
9.81328e+06
1.12782e+07
9.88628e+06
9.49026e+06
9.29421e+06
9.04191e+06
8.71373e+06
1.14509e+07
1.17453e+07
1.20221e+07
8.57502e+06
8.68964e+06
1.0429e+07
1.02049e+07
1.06511e+07
9.98642e+06
1.08638e+07
9.78069e+06
1.106e+07
9.59433e+06
1.12337e+07
9.43298e+06
1.13794e+07
9.30112e+06
1.14933e+07
9.20197e+06
1.15727e+07
9.13742e+06
1.1616e+07
9.10813e+06
1.1623e+07
9.11372e+06
1.15945e+07
9.15307e+06
1.15317e+07
9.22468e+06
1.14366e+07
9.32709e+06
1.13107e+07
9.45951e+06
1.11554e+07
9.62243e+06
1.09711e+07
9.81849e+06
1.07564e+07
1.00535e+07
1.05075e+07
1.03382e+07
1.02155e+07
1.06895e+07
9.86359e+06
1.11337e+07
1.00248e+07
9.54917e+06
9.39995e+06
9.22137e+06
9.00958e+06
1.13245e+07
1.15118e+07
1.15527e+07
8.85375e+06
8.90476e+06
1.04247e+07
1.02012e+07
1.06465e+07
9.98339e+06
1.0859e+07
9.77867e+06
1.10555e+07
9.59366e+06
1.12296e+07
9.4341e+06
1.13764e+07
9.30459e+06
1.14922e+07
9.20845e+06
1.15744e+07
9.14765e+06
1.1622e+07
9.12295e+06
1.16351e+07
9.13404e+06
1.16146e+07
9.17978e+06
1.15621e+07
9.25854e+06
1.14796e+07
9.36858e+06
1.13685e+07
9.50843e+06
1.12294e+07
9.67732e+06
1.10617e+07
9.87554e+06
1.08625e+07
1.01049e+07
1.06263e+07
1.03691e+07
1.03441e+07
1.06744e+07
1.00047e+07
1.10304e+07
1.01845e+07
9.63217e+06
9.53171e+06
9.43085e+06
9.33967e+06
1.11998e+07
1.13761e+07
1.15562e+07
1.20207e+07
1.2395e+07
1.04289e+07
1.02047e+07
1.06511e+07
9.98608e+06
1.08639e+07
9.7802e+06
1.10603e+07
9.59365e+06
1.12341e+07
9.43205e+06
1.13801e+07
9.29986e+06
1.14943e+07
9.20024e+06
1.1574e+07
9.13502e+06
1.16178e+07
9.10476e+06
1.16256e+07
9.10893e+06
1.15981e+07
9.14618e+06
1.15368e+07
9.21464e+06
1.14437e+07
9.31233e+06
1.1321e+07
9.43758e+06
1.11708e+07
9.58954e+06
1.09948e+07
9.76866e+06
1.07945e+07
9.97727e+06
1.05715e+07
1.02199e+07
1.03282e+07
1.05031e+07
1.00694e+07
1.08317e+07
1.03356e+07
9.71878e+06
9.6618e+06
9.62803e+06
9.63996e+06
1.10724e+07
1.12645e+07
1.15042e+07
1.18079e+07
1.20481e+07
1.04248e+07
1.02011e+07
1.06467e+07
9.98315e+06
1.08595e+07
9.77823e+06
1.10561e+07
9.59298e+06
1.12305e+07
9.43313e+06
1.13777e+07
9.30324e+06
1.14939e+07
9.20659e+06
1.15767e+07
9.14511e+06
1.16252e+07
9.11949e+06
1.16396e+07
9.1293e+06
1.1621e+07
9.17325e+06
1.15715e+07
9.24946e+06
1.14932e+07
9.35579e+06
1.13885e+07
9.49013e+06
1.12592e+07
9.65058e+06
1.11062e+07
9.8354e+06
1.09294e+07
1.00426e+07
1.07276e+07
1.02689e+07
1.0499e+07
1.05067e+07
1.02446e+07
1.07396e+07
1.04903e+07
9.79812e+06
9.76775e+06
9.77766e+06
9.86692e+06
1.09296e+07
1.1119e+07
1.13397e+07
1.15781e+07
1.1765e+07
1.04288e+07
1.02044e+07
1.06511e+07
9.9856e+06
1.08641e+07
9.77951e+06
1.10608e+07
9.5927e+06
1.12348e+07
9.43076e+06
1.13811e+07
9.29811e+06
1.14957e+07
9.19785e+06
1.15759e+07
9.13173e+06
1.16204e+07
9.10017e+06
1.16292e+07
9.10244e+06
1.1603e+07
9.13691e+06
1.15436e+07
9.20125e+06
1.14533e+07
9.29279e+06
1.13346e+07
9.40885e+06
1.11902e+07
9.54694e+06
1.10232e+07
9.70505e+06
1.08373e+07
9.88173e+06
1.06389e+07
1.0076e+07
1.04404e+07
1.02871e+07
1.02677e+07
1.05126e+07
1.06105e+07
9.85764e+06
9.83364e+06
9.84758e+06
9.96461e+06
1.07778e+07
1.09598e+07
1.11591e+07
1.13664e+07
1.1535e+07
1.04249e+07
1.0201e+07
1.06471e+07
9.98283e+06
1.086e+07
9.77766e+06
1.10569e+07
9.5921e+06
1.12317e+07
9.43186e+06
1.13792e+07
9.30148e+06
1.1496e+07
9.20417e+06
1.15797e+07
9.14182e+06
1.16293e+07
9.11503e+06
1.16452e+07
9.12325e+06
1.1629e+07
9.16499e+06
1.15829e+07
9.23815e+06
1.15097e+07
9.3402e+06
1.14125e+07
9.46845e+06
1.12943e+07
9.6201e+06
1.1158e+07
9.79194e+06
1.1006e+07
9.97947e+06
1.08406e+07
1.01746e+07
1.06641e+07
1.03605e+07
1.04788e+07
1.0502e+07
1.0729e+07
9.90682e+06
9.86248e+06
9.81614e+06
9.73907e+06
9.46179e+06
9.18582e+06
8.92449e+06
8.70092e+06
8.55607e+06
1.04286e+07
1.02041e+07
1.06512e+07
9.98502e+06
1.08644e+07
9.77867e+06
1.10612e+07
9.59155e+06
1.12356e+07
9.4292e+06
1.13822e+07
9.29602e+06
1.14973e+07
9.19502e+06
1.15782e+07
9.12785e+06
1.16236e+07
9.09481e+06
1.16336e+07
9.09494e+06
1.1609e+07
9.1263e+06
1.15518e+07
9.18608e+06
1.14645e+07
9.27095e+06
1.13499e+07
9.37714e+06
1.12111e+07
9.50063e+06
1.10517e+07
9.63702e+06
1.08761e+07
9.78128e+06
1.06916e+07
9.92742e+06
1.05134e+07
1.00695e+07
1.03845e+07
1.02119e+07
1.07877e+07
9.95122e+06
9.89339e+06
9.81355e+06
9.70537e+06
9.52339e+06
9.32931e+06
9.14395e+06
8.99391e+06
8.90081e+06
1.04251e+07
1.02009e+07
1.06474e+07
9.98246e+06
1.08607e+07
9.77699e+06
1.10579e+07
9.59107e+06
1.1233e+07
9.43038e+06
1.1381e+07
9.29941e+06
1.14984e+07
9.20134e+06
1.15829e+07
9.13799e+06
1.16338e+07
9.10986e+06
1.16514e+07
9.11628e+06
1.16376e+07
9.15561e+06
1.1595e+07
9.22552e+06
1.1527e+07
9.32318e+06
1.14374e+07
9.44554e+06
1.13303e+07
9.58935e+06
1.12102e+07
9.75095e+06
1.10821e+07
9.92556e+06
1.09516e+07
1.01053e+07
1.08245e+07
1.02733e+07
1.07014e+07
1.03846e+07
1.08849e+07
1.00079e+07
9.94592e+06
9.83812e+06
9.74268e+06
9.59825e+06
9.46701e+06
9.33339e+06
9.23759e+06
9.17801e+06
1.04284e+07
1.02036e+07
1.06512e+07
9.98436e+06
1.08647e+07
9.77774e+06
1.10618e+07
9.59028e+06
1.12365e+07
9.42751e+06
1.13836e+07
9.29376e+06
1.14992e+07
9.19199e+06
1.15808e+07
9.12375e+06
1.16272e+07
9.08919e+06
1.16385e+07
9.08718e+06
1.16157e+07
9.11545e+06
1.15609e+07
9.1708e+06
1.14767e+07
9.24927e+06
1.13661e+07
9.34624e+06
1.12324e+07
9.45639e+06
1.10788e+07
9.57341e+06
1.09086e+07
9.68919e+06
1.07247e+07
9.79185e+06
1.05272e+07
9.86055e+06
1.03003e+07
9.84779e+06
9.9467e+06
9.60528e+06
9.61535e+06
9.30468e+06
9.20693e+06
8.88988e+06
8.73067e+06
8.48677e+06
8.3728e+06
8.27994e+06
1.04252e+07
1.02008e+07
1.06479e+07
9.98207e+06
1.08614e+07
9.77626e+06
1.10589e+07
9.58995e+06
1.12344e+07
9.42876e+06
1.13829e+07
9.29715e+06
1.1501e+07
9.19826e+06
1.15863e+07
9.13383e+06
1.16383e+07
9.10427e+06
1.16575e+07
9.10881e+06
1.1646e+07
9.14565e+06
1.16067e+07
9.2123e+06
1.15433e+07
9.30573e+06
1.14604e+07
9.42271e+06
1.13629e+07
9.55994e+06
1.12567e+07
9.71415e+06
1.11486e+07
9.88225e+06
1.10481e+07
1.00619e+07
1.09701e+07
1.02551e+07
1.09463e+07
1.04846e+07
1.10692e+07
1.08735e+07
1.12443e+07
1.12094e+07
1.15134e+07
1.15837e+07
1.18337e+07
1.19217e+07
1.20656e+07
1.21038e+07
1.04282e+07
1.02032e+07
1.06512e+07
9.98367e+06
1.08649e+07
9.77678e+06
1.10624e+07
9.58898e+06
1.12374e+07
9.4258e+06
1.13849e+07
9.2915e+06
1.15012e+07
9.189e+06
1.15836e+07
9.11976e+06
1.16311e+07
9.08381e+06
1.16437e+07
9.07985e+06
1.16229e+07
9.10537e+06
1.15705e+07
9.15685e+06
1.14895e+07
9.2299e+06
1.13829e+07
9.31929e+06
1.1254e+07
9.41893e+06
1.11057e+07
9.52153e+06
1.09405e+07
9.61783e+06
1.07594e+07
9.69509e+06
1.05597e+07
9.7342e+06
1.03311e+07
9.70555e+06
1.00544e+07
9.57222e+06
9.76419e+06
9.37837e+06
9.45166e+06
9.14297e+06
9.14207e+06
8.93475e+06
8.91586e+06
8.84192e+06
1.04254e+07
1.02007e+07
1.06483e+07
9.98169e+06
1.08621e+07
9.77553e+06
1.106e+07
9.5888e+06
1.12358e+07
9.42709e+06
1.13848e+07
9.29482e+06
1.15034e+07
9.19508e+06
1.15895e+07
9.12954e+06
1.16424e+07
9.09853e+06
1.16631e+07
9.10117e+06
1.16535e+07
9.13555e+06
1.16168e+07
9.19902e+06
1.15571e+07
9.28843e+06
1.14793e+07
9.40044e+06
1.1389e+07
9.53181e+06
1.12926e+07
9.67967e+06
1.11978e+07
9.84204e+06
1.11143e+07
1.00188e+07
1.10561e+07
1.02143e+07
1.10436e+07
1.04415e+07
1.11024e+07
1.07218e+07
1.12114e+07
1.09998e+07
1.13651e+07
1.12723e+07
1.15286e+07
1.15007e+07
1.16355e+07
1.16314e+07
1.0428e+07
1.02027e+07
1.06512e+07
9.98299e+06
1.08652e+07
9.77584e+06
1.10629e+07
9.58774e+06
1.12383e+07
9.42418e+06
1.13863e+07
9.28941e+06
1.15031e+07
9.18629e+06
1.15864e+07
9.1162e+06
1.1635e+07
9.07909e+06
1.16491e+07
9.07353e+06
1.16302e+07
9.09686e+06
1.15804e+07
9.14536e+06
1.15027e+07
9.21435e+06
1.14002e+07
9.29835e+06
1.12763e+07
9.39099e+06
1.11339e+07
9.48487e+06
1.09753e+07
9.57114e+06
1.08016e+07
9.63889e+06
1.06116e+07
9.67462e+06
1.04022e+07
9.6633e+06
1.01711e+07
9.59555e+06
9.93087e+06
9.48862e+06
9.68979e+06
9.36583e+06
9.46957e+06
9.26778e+06
9.30887e+06
9.23986e+06
1.04256e+07
1.02006e+07
1.06488e+07
9.98133e+06
1.08629e+07
9.77483e+06
1.1061e+07
9.58768e+06
1.12371e+07
9.42546e+06
1.13865e+07
9.29254e+06
1.15056e+07
9.19195e+06
1.15923e+07
9.12531e+06
1.1646e+07
9.09287e+06
1.16677e+07
9.09366e+06
1.16594e+07
9.12565e+06
1.16246e+07
9.18605e+06
1.15674e+07
9.27159e+06
1.14929e+07
9.37883e+06
1.14069e+07
9.50449e+06
1.13159e+07
9.64576e+06
1.12272e+07
9.8008e+06
1.11495e+07
9.96927e+06
1.10931e+07
1.01531e+07
1.10693e+07
1.03561e+07
1.10865e+07
1.0579e+07
1.11375e+07
1.08013e+07
1.12109e+07
1.1009e+07
1.12825e+07
1.1179e+07
1.13171e+07
1.12859e+07
1.04277e+07
1.02023e+07
1.06512e+07
9.98235e+06
1.08654e+07
9.77498e+06
1.10634e+07
9.58664e+06
1.12391e+07
9.42278e+06
1.13876e+07
9.28763e+06
1.1505e+07
9.18402e+06
1.15891e+07
9.11329e+06
1.16388e+07
9.07533e+06
1.16544e+07
9.06864e+06
1.16374e+07
9.09046e+06
1.15903e+07
9.13698e+06
1.15159e+07
9.20345e+06
1.14177e+07
9.28433e+06
1.12992e+07
9.37338e+06
1.11635e+07
9.46362e+06
1.10132e+07
9.54724e+06
1.085e+07
9.6157e+06
1.06748e+07
9.6601e+06
1.0488e+07
9.67299e+06
1.02918e+07
9.65261e+06
1.00936e+07
9.60878e+06
9.90274e+06
9.55873e+06
9.7342e+06
9.5269e+06
9.60769e+06
9.53822e+06
1.04258e+07
1.02006e+07
1.06492e+07
9.98102e+06
1.08635e+07
9.77421e+06
1.10619e+07
9.58667e+06
1.12383e+07
9.42396e+06
1.1388e+07
9.29041e+06
1.15074e+07
9.18901e+06
1.15945e+07
9.12132e+06
1.16487e+07
9.08751e+06
1.1671e+07
9.08652e+06
1.16635e+07
9.11621e+06
1.16297e+07
9.17367e+06
1.15737e+07
9.25547e+06
1.15007e+07
9.35801e+06
1.14163e+07
9.47784e+06
1.13267e+07
9.61194e+06
1.12387e+07
9.75806e+06
1.11593e+07
9.91494e+06
1.10958e+07
1.00822e+07
1.10548e+07
1.02595e+07
1.10393e+07
1.04433e+07
1.10452e+07
1.06233e+07
1.10633e+07
1.07881e+07
1.10776e+07
1.09244e+07
1.10684e+07
1.10195e+07
1.04275e+07
1.02019e+07
1.06511e+07
9.98179e+06
1.08655e+07
9.77425e+06
1.10637e+07
9.58573e+06
1.12398e+07
9.42166e+06
1.13887e+07
9.28626e+06
1.15067e+07
9.18234e+06
1.15916e+07
9.11122e+06
1.16423e+07
9.07276e+06
1.16594e+07
9.06543e+06
1.16444e+07
9.08646e+06
1.15999e+07
9.13202e+06
1.15289e+07
9.19742e+06
1.14352e+07
9.27727e+06
1.13224e+07
9.36562e+06
1.11939e+07
9.45611e+06
1.10529e+07
9.54211e+06
1.09018e+07
9.61699e+06
1.07427e+07
9.67478e+06
1.05777e+07
9.71154e+06
1.04099e+07
9.72751e+06
1.02447e+07
9.72904e+06
1.00892e+07
9.72749e+06
9.95278e+06
9.73767e+06
9.84546e+06
9.77399e+06
1.0426e+07
1.02006e+07
1.06496e+07
9.98079e+06
1.08641e+07
9.77369e+06
1.10627e+07
9.58581e+06
1.12393e+07
9.42265e+06
1.13892e+07
9.28853e+06
1.15088e+07
9.18638e+06
1.15961e+07
9.11772e+06
1.16505e+07
9.08265e+06
1.1673e+07
9.08e+06
1.16657e+07
9.10753e+06
1.16319e+07
9.16218e+06
1.1576e+07
9.24037e+06
1.15027e+07
9.33828e+06
1.14177e+07
9.45219e+06
1.13265e+07
9.57872e+06
1.12353e+07
9.71508e+06
1.11498e+07
9.8591e+06
1.10754e+07
1.00091e+07
1.10163e+07
1.0163e+07
1.09738e+07
1.03173e+07
1.09453e+07
1.04656e+07
1.09245e+07
1.0601e+07
1.09014e+07
1.07158e+07
1.08645e+07
1.08041e+07
1.04272e+07
1.02015e+07
1.0651e+07
9.98132e+06
1.08655e+07
9.77368e+06
1.1064e+07
9.58506e+06
1.12403e+07
9.42088e+06
1.13896e+07
9.28537e+06
1.15081e+07
9.18133e+06
1.15937e+07
9.11007e+06
1.16455e+07
9.07147e+06
1.1664e+07
9.06399e+06
1.16509e+07
9.08491e+06
1.16089e+07
9.13046e+06
1.15413e+07
9.19607e+06
1.14521e+07
9.27659e+06
1.1345e+07
9.36647e+06
1.12241e+07
9.45999e+06
1.10927e+07
9.55149e+06
1.0954e+07
9.6357e+06
1.08108e+07
9.70831e+06
1.06657e+07
9.76682e+06
1.05217e+07
9.81158e+06
1.03827e+07
9.84654e+06
1.02532e+07
9.87871e+06
1.01384e+07
9.91696e+06
1.00432e+07
9.96985e+06
1.04263e+07
1.02007e+07
1.065e+07
9.98066e+06
1.08646e+07
9.77332e+06
1.10633e+07
9.58514e+06
1.124e+07
9.4216e+06
1.139e+07
9.28698e+06
1.15096e+07
9.18418e+06
1.15969e+07
9.11466e+06
1.16513e+07
9.07845e+06
1.16736e+07
9.0743e+06
1.16659e+07
9.09985e+06
1.16315e+07
9.1519e+06
1.15745e+07
9.22666e+06
1.14997e+07
9.32009e+06
1.14121e+07
9.42813e+06
1.13172e+07
9.54701e+06
1.12203e+07
9.6734e+06
1.11262e+07
9.80449e+06
1.10392e+07
9.93785e+06
1.09626e+07
1.00711e+07
1.08972e+07
1.02014e+07
1.08419e+07
1.03251e+07
1.07928e+07
1.04383e+07
1.07439e+07
1.05377e+07
1.06886e+07
1.0621e+07
1.0427e+07
1.02012e+07
1.06508e+07
9.98097e+06
1.08655e+07
9.7733e+06
1.10641e+07
9.58466e+06
1.12406e+07
9.42049e+06
1.13902e+07
9.28501e+06
1.15092e+07
9.18103e+06
1.15954e+07
9.10989e+06
1.16481e+07
9.07147e+06
1.16678e+07
9.0643e+06
1.16565e+07
9.08571e+06
1.16169e+07
9.13204e+06
1.15526e+07
9.19891e+06
1.14677e+07
9.28144e+06
1.13663e+07
9.37448e+06
1.12528e+07
9.47289e+06
1.11309e+07
9.57176e+06
1.10044e+07
9.66672e+06
1.08762e+07
9.75431e+06
1.07492e+07
9.83246e+06
1.06259e+07
9.90099e+06
1.05087e+07
9.96184e+06
1.03999e+07
1.00188e+07
1.03017e+07
1.00769e+07
1.02155e+07