/*--------------------------------*- C++ -*----------------------------------*\
| =========                 |                                                 |
| \\      /  F ield         | foam-extend: Open Source CFD                    |
|  \\    /   O peration     | Version:     4.0                                |
|   \\  /    A nd           | Web:         http://www.foam-extend.org         |
|    \\/     M anipulation  |                                                 |
\*---------------------------------------------------------------------------*/
FoamFile
{
    version     2.0;
    format      ascii;
    class       surfaceScalarField;
    location    "4e-05";
    object      phi;
}
// * * * * * * * * * * * * * * * * * * * * * * * * * * * * * * * * * * * * * //

dimensions      [0 3 -1 0 0 0 0];

internalField   nonuniform List<scalar> 
57362
(
1.46737e-07
1.3928e-10
1.46607e-07
1.41301e-10
1.46442e-07
1.45893e-10
1.46316e-07
1.52086e-10
1.46121e-07
1.61552e-10
1.4599e-07
1.72271e-10
1.45755e-07
1.87191e-10
1.45605e-07
2.03045e-10
1.45322e-07
2.24329e-10
1.4514e-07
2.46213e-10
1.44796e-07
2.7514e-10
1.44565e-07
3.04269e-10
1.44145e-07
3.42552e-10
1.43845e-07
3.80511e-10
1.43332e-07
4.30367e-10
1.42938e-07
4.79166e-10
1.42308e-07
5.43396e-10
1.4179e-07
6.05526e-10
1.41014e-07
6.876e-10
1.40336e-07
7.66086e-10
1.39379e-07
8.70206e-10
1.38497e-07
9.68635e-10
1.37312e-07
1.09976e-09
1.36173e-07
1.22227e-09
1.34706e-07
1.38606e-09
1.33248e-07
1.53726e-09
1.31432e-07
1.73983e-09
1.2958e-07
1.92458e-09
1.27339e-07
2.17206e-09
1.2501e-07
2.39509e-09
1.22256e-07
2.69277e-09
1.19357e-07
2.95803e-09
1.15993e-07
3.30906e-09
1.12426e-07
3.61874e-09
1.08357e-07
4.02229e-09
1.04026e-07
4.37543e-09
9.91628e-08
4.82456e-09
9.39852e-08
5.21514e-09
8.82588e-08
5.69476e-09
8.21803e-08
6.10944e-09
7.55603e-08
6.5953e-09
6.85738e-08
7.01138e-09
6.10849e-08
7.47087e-09
5.32481e-08
7.85595e-09
4.49853e-08
8.2509e-09
3.64329e-08
8.56634e-09
2.75688e-08
8.8578e-09
1.85119e-08
9.06586e-09
9.28982e-09
9.22106e-09
9.29385e-09
1.46724e-07
2.76446e-10
1.46596e-07
2.80466e-10
1.46434e-07
2.8958e-10
1.4631e-07
3.01882e-10
1.46118e-07
3.20671e-10
1.45988e-07
3.41961e-10
1.45757e-07
3.71578e-10
1.4561e-07
4.03072e-10
1.4533e-07
4.45323e-10
1.45152e-07
4.88799e-10
1.44812e-07
5.4623e-10
1.44585e-07
6.04111e-10
1.4417e-07
6.80127e-10
1.43876e-07
7.5557e-10
1.43368e-07
8.54585e-10
1.42981e-07
9.51596e-10
1.42358e-07
1.07919e-09
1.41849e-07
1.20274e-09
1.41082e-07
1.36585e-09
1.40414e-07
1.52198e-09
1.39468e-07
1.72899e-09
1.38598e-07
1.92488e-09
1.37427e-07
2.18574e-09
1.36302e-07
2.42967e-09
1.34851e-07
2.75576e-09
1.33409e-07
3.05697e-09
1.31612e-07
3.46067e-09
1.2978e-07
3.82894e-09
1.27559e-07
4.32271e-09
1.25251e-07
4.76761e-09
1.22518e-07
5.36234e-09
1.19642e-07
5.89196e-09
1.163e-07
6.59432e-09
1.12755e-07
7.21334e-09
1.08705e-07
8.02205e-09
1.04393e-07
8.72903e-09
9.95441e-08
9.6304e-09
9.43786e-08
1.0414e-08
8.86587e-08
1.13778e-08
8.25815e-08
1.2212e-08
7.5956e-08
1.31896e-08
6.89561e-08
1.40292e-08
6.14458e-08
1.49551e-08
5.35784e-08
1.57341e-08
4.52769e-08
1.65312e-08
3.66772e-08
1.71703e-08
2.77591e-08
1.77592e-08
1.8642e-08
1.81812e-08
9.35599e-09
1.8495e-08
1.86427e-08
1.46743e-07
4.09524e-10
1.46619e-07
4.15485e-10
1.46461e-07
4.28995e-10
1.46342e-07
4.47225e-10
1.46154e-07
4.75081e-10
1.4603e-07
5.06629e-10
1.45804e-07
5.50545e-10
1.45663e-07
5.97217e-10
1.45389e-07
6.59875e-10
1.45218e-07
7.24314e-10
1.44886e-07
8.09503e-10
1.44668e-07
8.95307e-10
1.44263e-07
1.0081e-09
1.43979e-07
1.11997e-09
1.43484e-07
1.26693e-09
1.4311e-07
1.41083e-09
1.42502e-07
1.6003e-09
1.42009e-07
1.78366e-09
1.41261e-07
2.02599e-09
1.40613e-07
2.25783e-09
1.39689e-07
2.56561e-09
1.38845e-07
2.8567e-09
1.37701e-07
3.2449e-09
1.36607e-07
3.60773e-09
1.35188e-07
4.09351e-09
1.33783e-07
4.54208e-09
1.32024e-07
5.14429e-09
1.30233e-07
5.69355e-09
1.28057e-07
6.43138e-09
1.25796e-07
7.09611e-09
1.23111e-07
7.98669e-09
1.20284e-07
8.77969e-09
1.16992e-07
9.83421e-09
1.13496e-07
1.07634e-08
1.09493e-07
1.19815e-08
1.05223e-07
1.30458e-08
1.00411e-07
1.44085e-08
9.52739e-08
1.55921e-08
8.95707e-08
1.7055e-08
8.34988e-08
1.83199e-08
7.68612e-08
1.98096e-08
6.98337e-08
2.10881e-08
6.22753e-08
2.25039e-08
5.43413e-08
2.36954e-08
4.5952e-08
2.49182e-08
3.72456e-08
2.59002e-08
2.82028e-08
2.68064e-08
1.89467e-08
2.7457e-08
9.51107e-09
2.7941e-08
2.81691e-08
1.46749e-07
5.36446e-10
1.46632e-07
5.44263e-10
1.4648e-07
5.61966e-10
1.46368e-07
5.85871e-10
1.46187e-07
6.22375e-10
1.4607e-07
6.6375e-10
1.45853e-07
7.21307e-10
1.4572e-07
7.82527e-10
1.45457e-07
8.64664e-10
1.45296e-07
9.49212e-10
1.44976e-07
1.06091e-09
1.44771e-07
1.17353e-09
1.4438e-07
1.32147e-09
1.44112e-07
1.46837e-09
1.43635e-07
1.66122e-09
1.4328e-07
1.85029e-09
1.42694e-07
2.09908e-09
1.42225e-07
2.34013e-09
1.41504e-07
2.65859e-09
1.40886e-07
2.96364e-09
1.39995e-07
3.36853e-09
1.39186e-07
3.75193e-09
1.38082e-07
4.26327e-09
1.37031e-07
4.74172e-09
1.35659e-07
5.38269e-09
1.34304e-07
5.97504e-09
1.326e-07
6.7713e-09
1.30867e-07
7.49782e-09
1.28751e-07
8.47592e-09
1.26554e-07
9.35692e-09
1.23934e-07
1.05412e-08
1.21175e-07
1.15947e-08
1.17949e-07
1.30021e-08
1.14519e-07
1.42401e-08
1.10576e-07
1.58722e-08
1.06364e-07
1.72954e-08
1.01597e-07
1.91289e-08
9.64989e-08
2.07192e-08
9.0817e-08
2.26954e-08
8.4751e-08
2.44055e-08
7.80981e-08
2.64252e-08
7.10306e-08
2.8166e-08
6.34074e-08
3.00934e-08
5.53789e-08
3.17258e-08
4.68694e-08
3.33972e-08
3.80149e-08
3.47486e-08
2.88026e-08
3.59915e-08
1.93571e-08
3.68894e-08
9.71981e-09
3.75547e-08
3.787e-08
1.46742e-07
6.55388e-10
1.46633e-07
6.64944e-10
1.46489e-07
6.86596e-10
1.46386e-07
7.1582e-10
1.46214e-07
7.60471e-10
1.46107e-07
8.11056e-10
1.459e-07
8.81471e-10
1.45779e-07
9.56333e-10
1.45528e-07
1.05685e-09
1.45381e-07
1.16026e-09
1.45076e-07
1.297e-09
1.44888e-07
1.4348e-09
1.44517e-07
1.61599e-09
1.4427e-07
1.79582e-09
1.43816e-07
2.03217e-09
1.43488e-07
2.26375e-09
1.42932e-07
2.56889e-09
1.42495e-07
2.86441e-09
1.41811e-07
3.25537e-09
1.41233e-07
3.62973e-09
1.40387e-07
4.12742e-09
1.39628e-07
4.59854e-09
1.38579e-07
5.22806e-09
1.37588e-07
5.81696e-09
1.36283e-07
6.6076e-09
1.34999e-07
7.33817e-09
1.33374e-07
8.32278e-09
1.31725e-07
9.22105e-09
1.29701e-07
1.04342e-08
1.27598e-07
1.15268e-08
1.2508e-07
1.30013e-08
1.22424e-07
1.43125e-08
1.19304e-07
1.6073e-08
1.15978e-07
1.76205e-08
1.12137e-07
1.96736e-08
1.0802e-07
2.14618e-08
1.03336e-07
2.37831e-08
9.83062e-08
2.57935e-08
9.26685e-08
2.8313e-08
8.66241e-08
3.04904e-08
7.9956e-08
3.30831e-08
7.2842e-08
3.53176e-08
6.51282e-08
3.78065e-08
5.69693e-08
3.99201e-08
4.82835e-08
4.20912e-08
3.92107e-08
4.38549e-08
2.97396e-08
4.54787e-08
2.00022e-08
4.66579e-08
1.00487e-08
4.75307e-08
4.79463e-08
1.46767e-07
7.64474e-10
1.46668e-07
7.75636e-10
1.46535e-07
8.00909e-10
1.46442e-07
8.35045e-10
1.46282e-07
8.87168e-10
1.46187e-07
9.46266e-10
1.45993e-07
1.02848e-09
1.45886e-07
1.11597e-09
1.45651e-07
1.23335e-09
1.45521e-07
1.35425e-09
1.45235e-07
1.51401e-09
1.45068e-07
1.6752e-09
1.4472e-07
1.887e-09
1.44498e-07
2.09748e-09
1.44073e-07
2.37396e-09
1.43777e-07
2.64524e-09
1.43256e-07
3.00252e-09
1.42859e-07
3.34905e-09
1.42219e-07
3.80736e-09
1.41689e-07
4.24691e-09
1.40897e-07
4.83124e-09
1.40196e-07
5.38524e-09
1.39212e-07
6.12582e-09
1.38291e-07
6.81962e-09
1.37065e-07
7.75209e-09
1.35865e-07
8.61473e-09
1.34331e-07
9.77966e-09
1.32778e-07
1.08432e-08
1.30857e-07
1.22842e-08
1.28864e-07
1.35819e-08
1.26458e-07
1.53419e-08
1.23918e-07
1.69051e-08
1.20913e-07
1.90187e-08
1.17706e-07
2.08719e-08
1.13972e-07
2.33532e-08
1.09962e-07
2.55066e-08
1.05364e-07
2.83319e-08
1.0041e-07
3.07706e-08
9.48202e-08
3.38578e-08
8.87984e-08
3.65253e-08
8.21175e-08
3.97211e-08
7.49451e-08
4.24925e-08
6.71287e-08
4.55816e-08
5.88109e-08
4.82298e-08
4.99185e-08
5.09437e-08
4.05857e-08
5.317e-08
3.08141e-08
5.52117e-08
2.07386e-08
5.67076e-08
1.04237e-08
5.78095e-08
5.8338e-08
1.46778e-07
8.62184e-10
1.46691e-07
8.74784e-10
1.46569e-07
9.03326e-10
1.46489e-07
9.41862e-10
1.46342e-07
1.00073e-09
1.46261e-07
1.06746e-09
1.46082e-07
1.16035e-09
1.45992e-07
1.25915e-09
1.45774e-07
1.39182e-09
1.45665e-07
1.52841e-09
1.454e-07
1.70906e-09
1.45258e-07
1.89125e-09
1.44937e-07
2.13091e-09
1.44746e-07
2.36898e-09
1.44355e-07
2.68208e-09
1.44096e-07
2.9892e-09
1.43618e-07
3.39423e-09
1.43268e-07
3.78698e-09
1.42681e-07
4.30725e-09
1.4221e-07
4.80614e-09
1.41484e-07
5.47061e-09
1.40856e-07
6.10055e-09
1.39954e-07
6.94453e-09
1.39122e-07
7.73521e-09
1.37995e-07
8.80079e-09
1.36902e-07
9.78665e-09
1.35487e-07
1.11225e-08
1.34062e-07
1.23421e-08
1.3228e-07
1.40016e-08
1.30434e-07
1.5496e-08
1.28186e-07
1.75338e-08
1.2581e-07
1.9343e-08
1.22976e-07
2.18065e-08
1.19939e-07
2.39644e-08
1.16376e-07
2.688e-08
1.12527e-07
2.94057e-08
1.08077e-07
3.27572e-08
1.03251e-07
3.56427e-08
9.77517e-08
3.93436e-08
9.17875e-08
4.25339e-08
8.5102e-08
4.64042e-08
7.78767e-08
4.97614e-08
6.99346e-08
5.35327e-08
6.14241e-08
5.6784e-08
5.226e-08
6.01276e-08
4.25792e-08
6.2895e-08
3.23861e-08
6.5434e-08
2.18256e-08
6.7312e-08
1.09797e-08
6.86921e-08
6.93593e-08
1.46777e-07
9.46876e-10
1.46702e-07
9.60735e-10
1.46594e-07
9.9211e-10
1.46528e-07
1.0345e-09
1.46396e-07
1.09923e-09
1.46331e-07
1.17265e-09
1.4617e-07
1.2748e-09
1.46099e-07
1.38355e-09
1.45902e-07
1.5295e-09
1.45815e-07
1.67993e-09
1.45576e-07
1.87875e-09
1.45461e-07
2.07953e-09
1.45171e-07
2.34348e-09
1.45014e-07
2.60606e-09
1.44662e-07
2.9512e-09
1.44446e-07
3.2903e-09
1.44016e-07
3.73731e-09
1.43718e-07
4.17153e-09
1.43191e-07
4.74662e-09
1.42785e-07
5.2991e-09
1.42132e-07
6.03503e-09
1.41584e-07
6.73407e-09
1.40772e-07
7.67119e-09
1.40037e-07
8.55081e-09
1.39018e-07
9.73781e-09
1.38042e-07
1.08379e-08
1.36756e-07
1.23321e-08
1.35468e-07
1.3698e-08
1.33834e-07
1.5564e-08
1.32146e-07
1.72448e-08
1.30063e-07
1.95512e-08
1.27861e-07
2.15965e-08
1.252e-07
2.44071e-08
1.22345e-07
2.6861e-08
1.1895e-07
3.02195e-08
1.15275e-07
3.3112e-08
1.10967e-07
3.70135e-08
1.0628e-07
4.03488e-08
1.00876e-07
4.46999e-08
9.49774e-08
4.84387e-08
8.83113e-08
5.30226e-08
8.10296e-08
5.70367e-08
7.29636e-08
6.15504e-08
6.42333e-08
6.54952e-08
5.47702e-08
6.95407e-08
4.47008e-08
7.29335e-08
3.40499e-08
7.60337e-08
2.29688e-08
7.83523e-08
1.15625e-08
8.00476e-08
8.08743e-08
1.46806e-07
1.01745e-09
1.46745e-07
1.03236e-09
1.46652e-07
1.06613e-09
1.46601e-07
1.11174e-09
1.46486e-07
1.18141e-09
1.46438e-07
1.26042e-09
1.46296e-07
1.3704e-09
1.46245e-07
1.48747e-09
1.46071e-07
1.64468e-09
1.46008e-07
1.80667e-09
1.45797e-07
2.02098e-09
1.45713e-07
2.23733e-09
1.45457e-07
2.52205e-09
1.45338e-07
2.80523e-09
1.45029e-07
3.17791e-09
1.4486e-07
3.54402e-09
1.44484e-07
4.02732e-09
1.44247e-07
4.49678e-09
1.43787e-07
5.1196e-09
1.43456e-07
5.71796e-09
1.42889e-07
6.51665e-09
1.42434e-07
7.27545e-09
1.41727e-07
8.2952e-09
1.41109e-07
9.2527e-09
1.4022e-07
1.05487e-08
1.39387e-07
1.17504e-08
1.38259e-07
1.33888e-08
1.37143e-07
1.48873e-08
1.35699e-07
1.69445e-08
1.34213e-07
1.87982e-08
1.32353e-07
2.13582e-08
1.30382e-07
2.36281e-08
1.27971e-07
2.67746e-08
1.25369e-07
2.95186e-08
1.22238e-07
3.33184e-08
1.18818e-07
3.65825e-08
1.14757e-07
4.10541e-08
1.10293e-07
4.48601e-08
1.05063e-07
4.99222e-08
9.92981e-08
5.42504e-08
9.26637e-08
5.96629e-08
8.53518e-08
6.43973e-08
7.71485e-08
6.97733e-08
6.81774e-08
7.45186e-08
5.83496e-08
7.94014e-08
4.77823e-08
8.3557e-08
3.65056e-08
8.73551e-08
2.46797e-08
9.02371e-08
1.24423e-08
9.23385e-08
9.3375e-08
1.46821e-07
1.07264e-09
1.46777e-07
1.08838e-09
1.467e-07
1.12402e-09
1.46666e-07
1.1722e-09
1.46568e-07
1.24574e-09
1.4654e-07
1.32922e-09
1.46418e-07
1.44534e-09
1.46389e-07
1.56908e-09
1.4624e-07
1.73515e-09
1.46204e-07
1.90647e-09
1.46023e-07
2.13298e-09
1.45972e-07
2.36196e-09
1.45754e-07
2.66314e-09
1.45676e-07
2.96315e-09
1.45413e-07
3.35778e-09
1.45295e-07
3.74613e-09
1.44977e-07
4.2586e-09
1.44803e-07
4.75737e-09
1.44416e-07
5.41894e-09
1.44164e-07
6.05594e-09
1.43687e-07
6.90628e-09
1.43331e-07
7.71608e-09
1.42736e-07
8.80496e-09
1.42239e-07
9.82997e-09
1.41487e-07
1.12191e-08
1.40802e-07
1.25104e-08
1.39839e-07
1.4275e-08
1.38901e-07
1.58926e-08
1.37652e-07
1.81221e-08
1.36375e-07
2.01341e-08
1.34738e-07
2.29305e-08
1.33005e-07
2.54101e-08
1.30838e-07
2.88824e-08
1.28493e-07
3.19016e-08
1.25608e-07
3.61491e-08
1.22449e-07
3.97689e-08
1.18608e-07
4.48445e-08
1.14376e-07
4.91057e-08
1.09311e-07
5.49377e-08
1.037e-07
5.98616e-08
9.71788e-08
6.61327e-08
8.98493e-08
7.17111e-08
8.15283e-08
7.80392e-08
7.22796e-08
8.37356e-08
6.20437e-08
8.95768e-08
5.09233e-08
9.46306e-08
3.89779e-08
9.92346e-08
2.63837e-08
1.02772e-07
1.33119e-08
1.05342e-07
1.0662e-07
1.46822e-07
1.11177e-09
1.46794e-07
1.12811e-09
1.46733e-07
1.16511e-09
1.46717e-07
1.21512e-09
1.46637e-07
1.29149e-09
1.46629e-07
1.37815e-09
1.46528e-07
1.49878e-09
1.46523e-07
1.62729e-09
1.464e-07
1.79989e-09
1.46392e-07
1.97791e-09
1.46243e-07
2.21347e-09
1.46227e-07
2.45157e-09
1.46048e-07
2.76507e-09
1.46014e-07
3.07732e-09
1.45801e-07
3.48856e-09
1.45739e-07
3.89325e-09
1.45483e-07
4.42807e-09
1.4538e-07
4.94865e-09
1.45072e-07
5.64037e-09
1.44909e-07
6.30658e-09
1.44532e-07
7.19777e-09
1.44288e-07
8.0469e-09
1.43819e-07
9.19156e-09
1.43462e-07
1.02698e-08
1.42869e-07
1.17358e-08
1.42358e-07
1.30997e-08
1.41592e-07
1.4971e-08
1.40869e-07
1.66883e-08
1.39862e-07
1.90672e-08
1.38846e-07
2.12165e-08
1.37501e-07
2.4224e-08
1.36078e-07
2.68928e-08
1.34255e-07
3.0665e-08
1.32266e-07
3.39436e-08
1.29768e-07
3.8618e-08
1.26996e-07
4.25903e-08
1.23555e-07
4.82695e-08
1.19702e-07
5.30051e-08
1.14969e-07
5.9669e-08
1.09642e-07
6.52352e-08
1.03218e-07
7.25718e-08
9.5929e-08
7.90525e-08
8.75183e-08
8.64808e-08
7.80273e-08
9.32875e-08
6.7367e-08
1.00285e-07
5.55897e-08
1.06478e-07
4.27597e-08
1.12128e-07
2.9051e-08
1.16559e-07
1.4695e-08
1.19772e-07
1.21395e-07
1.46854e-07
1.13404e-09
1.46843e-07
1.15074e-09
1.46801e-07
1.18853e-09
1.46802e-07
1.23963e-09
1.46743e-07
1.31765e-09
1.46755e-07
1.40625e-09
1.46678e-07
1.52951e-09
1.46697e-07
1.66096e-09
1.46601e-07
1.83739e-09
1.46623e-07
2.01959e-09
1.46507e-07
2.26055e-09
1.46527e-07
2.50445e-09
1.4639e-07
2.82539e-09
1.46402e-07
3.14558e-09
1.4624e-07
3.56707e-09
1.46235e-07
3.98263e-09
1.46045e-07
4.53158e-09
1.46013e-07
5.0671e-09
1.45787e-07
5.77845e-09
1.45715e-07
6.46529e-09
1.45441e-07
7.38406e-09
1.4531e-07
8.26194e-09
1.44971e-07
9.44576e-09
1.44756e-07
1.05645e-08
1.44324e-07
1.20868e-08
1.43989e-07
1.35082e-08
1.43423e-07
1.54615e-08
1.42916e-07
1.7261e-08
1.42152e-07
1.97611e-08
1.41397e-07
2.20283e-08
1.40341e-07
2.52173e-08
1.39226e-07
2.80547e-08
1.37732e-07
3.21017e-08
1.36093e-07
3.56183e-08
1.33944e-07
4.07143e-08
1.31547e-07
4.50116e-08
1.28426e-07
5.13418e-08
1.24945e-07
5.64966e-08
1.2044e-07
6.41258e-08
1.15439e-07
7.02302e-08
1.09391e-07
7.8567e-08
1.02207e-07
8.62114e-08
9.37406e-08
9.4887e-08
8.39299e-08
1.03053e-07
7.27252e-08
1.11418e-07
6.01763e-08
1.18961e-07
4.63809e-08
1.2584e-07
3.15541e-08
1.31303e-07
1.59731e-08
1.35262e-07
1.37276e-07
1.46871e-07
1.13929e-09
1.46877e-07
1.15609e-09
1.46852e-07
1.19412e-09
1.46873e-07
1.24554e-09
1.46833e-07
1.32407e-09
1.46866e-07
1.41324e-09
1.46811e-07
1.53735e-09
1.46855e-07
1.66968e-09
1.46786e-07
1.84743e-09
1.46839e-07
2.03096e-09
1.46757e-07
2.27388e-09
1.46815e-07
2.51974e-09
1.4672e-07
2.84359e-09
1.46779e-07
3.16669e-09
1.46671e-07
3.59251e-09
1.46726e-07
4.01239e-09
1.46605e-07
4.56783e-09
1.46649e-07
5.10983e-09
1.4651e-07
5.83101e-09
1.46535e-07
6.52769e-09
1.46373e-07
7.46148e-09
1.46366e-07
8.35445e-09
1.46169e-07
9.5615e-09
1.46113e-07
1.07035e-08
1.45862e-07
1.2262e-08
1.45727e-07
1.37195e-08
1.45391e-07
1.57299e-08
1.45137e-07
1.75855e-08
1.44663e-07
2.01758e-08
1.44225e-07
2.25304e-08
1.4353e-07
2.58625e-08
1.42807e-07
2.88351e-08
1.4176e-07
3.31104e-08
1.40596e-07
3.68327e-08
1.3899e-07
4.22946e-08
1.3715e-07
4.6896e-08
1.34664e-07
5.38151e-08
1.31802e-07
5.94013e-08
1.27949e-07
6.79809e-08
1.23533e-07
7.46895e-08
1.17599e-07
8.45233e-08
1.10566e-07
9.33002e-08
1.02199e-07
1.03296e-07
9.22674e-08
1.13053e-07
8.06948e-08
1.23055e-07
6.7363e-08
1.32379e-07
5.2356e-08
1.40933e-07
3.58503e-08
1.4791e-07
1.82284e-08
1.52987e-07
1.55613e-07
1.46873e-07
1.12719e-09
1.46897e-07
1.14385e-09
1.46891e-07
1.18152e-09
1.4693e-07
1.2325e-09
1.46911e-07
1.31031e-09
1.46966e-07
1.39874e-09
1.46935e-07
1.52175e-09
1.47004e-07
1.65304e-09
1.46964e-07
1.82929e-09
1.47047e-07
2.0115e-09
1.47e-07
2.25252e-09
1.47095e-07
2.49682e-09
1.47044e-07
2.81842e-09
1.4715e-07
3.13981e-09
1.47097e-07
3.56316e-09
1.47212e-07
3.98142e-09
1.47159e-07
4.53447e-09
1.4728e-07
5.07537e-09
1.47229e-07
5.79483e-09
1.4735e-07
6.49174e-09
1.47299e-07
7.42563e-09
1.47415e-07
8.32156e-09
1.4736e-07
9.53263e-09
1.47459e-07
1.06828e-08
1.47389e-07
1.22529e-08
1.47453e-07
1.37281e-08
1.47344e-07
1.5764e-08
1.4734e-07
1.76538e-08
1.47153e-07
2.02949e-08
1.47027e-07
2.27119e-08
1.46689e-07
2.61392e-08
1.46348e-07
2.92208e-08
1.45735e-07
3.36699e-08
1.45026e-07
3.75751e-08
1.43918e-07
4.33552e-08
1.42592e-07
4.82421e-08
1.40584e-07
5.57809e-08
1.38269e-07
6.17244e-08
1.34472e-07
7.17359e-08
1.30716e-07
7.84382e-08
1.25978e-07
8.921e-08
1.19363e-07
9.98789e-08
1.11055e-07
1.11542e-07
1.00791e-07
1.23257e-07
8.84766e-08
1.35288e-07
7.40623e-08
1.46706e-07
5.76502e-08
1.5724e-07
3.95147e-08
1.65933e-07
2.00983e-08
1.7228e-07
1.75585e-07
1.46905e-07
1.09813e-09
1.46946e-07
1.11438e-09
1.46957e-07
1.15114e-09
1.47015e-07
1.20088e-09
1.47015e-07
1.27683e-09
1.47091e-07
1.36312e-09
1.47082e-07
1.48323e-09
1.47177e-07
1.61141e-09
1.47164e-07
1.78359e-09
1.47278e-07
1.96156e-09
1.47264e-07
2.19717e-09
1.47398e-07
2.43597e-09
1.4739e-07
2.75064e-09
1.47544e-07
3.06512e-09
1.47546e-07
3.47982e-09
1.47722e-07
3.88963e-09
1.47739e-07
4.4322e-09
1.47938e-07
4.96308e-09
1.47977e-07
5.67029e-09
1.482e-07
6.3558e-09
1.48265e-07
7.27609e-09
1.48512e-07
8.15991e-09
1.48607e-07
9.35713e-09
1.48875e-07
1.0496e-08
1.48998e-07
1.20545e-08
1.4928e-07
1.35221e-08
1.49424e-07
1.55536e-08
1.49702e-07
1.74452e-08
1.4984e-07
2.00981e-08
1.50078e-07
2.25364e-08
1.50161e-07
2.60085e-08
1.50287e-07
2.91485e-08
1.50216e-07
3.37051e-08
1.50103e-07
3.77339e-08
1.49697e-07
4.37379e-08
1.49126e-07
4.88511e-08
1.48064e-07
5.68322e-08
1.46704e-07
6.31178e-08
1.44422e-07
7.40207e-08
1.41948e-07
8.09427e-08
1.36843e-07
4.92161e-08
4.51302e-08
1.30335e-07
5.11597e-08
5.52817e-08
1.22756e-07
5.74001e-08
6.1772e-08
1.1287e-07
6.42723e-08
6.8944e-08
1.00606e-07
7.13587e-08
7.62728e-08
8.55023e-08
7.8483e-08
8.34313e-08
6.75281e-08
8.53974e-08
8.99324e-08
4.68277e-08
9.15566e-08
9.5211e-08
2.40051e-08
9.64345e-08
9.88104e-08
9.94576e-08
1.00282e-07
1.46918e-07
1.0523e-09
1.46976e-07
1.06789e-09
1.47005e-07
1.10317e-09
1.47081e-07
1.15093e-09
1.47101e-07
1.2238e-09
1.47198e-07
1.30668e-09
1.47212e-07
1.42197e-09
1.47331e-07
1.54512e-09
1.47346e-07
1.71046e-09
1.4749e-07
1.88156e-09
1.47511e-07
2.10795e-09
1.47681e-07
2.33773e-09
1.47715e-07
2.64032e-09
1.47916e-07
2.94324e-09
1.47972e-07
3.34247e-09
1.48207e-07
3.73775e-09
1.48293e-07
4.26083e-09
1.48568e-07
4.77382e-09
1.48694e-07
5.45688e-09
1.49014e-07
6.12082e-09
1.49193e-07
7.0118e-09
1.49564e-07
7.87036e-09
1.49806e-07
9.03301e-09
1.50236e-07
1.01436e-08
1.50549e-07
1.1663e-08
1.5104e-07
1.31013e-08
1.5143e-07
1.50917e-08
1.5198e-07
1.69579e-08
1.52439e-07
1.95734e-08
1.53029e-07
2.2e-08
1.5353e-07
2.54495e-08
1.54109e-07
2.86119e-08
1.54586e-07
3.31796e-08
1.55043e-07
3.73073e-08
1.55362e-07
4.33782e-08
1.55467e-07
4.8764e-08
1.55418e-07
5.68486e-08
1.54698e-07
6.38435e-08
1.54132e-07
7.45617e-08
7.60315e-08
8.35292e-08
7.55092e-08
-4.62161e-08
4.68403e-08
7.54366e-08
-7.3134e-08
7.18226e-08
5.24326e-08
-7.03183e-08
6.85486e-08
5.91288e-08
-6.6534e-08
6.41745e-08
6.6586e-08
-6.15189e-08
5.84444e-08
7.43811e-08
-5.50271e-08
5.11435e-08
8.23057e-08
-4.68782e-08
4.21718e-08
9.00349e-08
-3.708e-08
3.15753e-08
9.69852e-08
-2.57289e-08
1.9582e-08
1.025e-07
-1.31964e-08
6.64129e-09
1.05928e-07
1.46932e-07
9.90582e-10
1.47006e-07
1.00528e-09
1.47051e-07
1.03854e-09
1.47145e-07
1.08356e-09
1.47183e-07
1.15228e-09
1.47299e-07
1.23042e-09
1.47335e-07
1.33917e-09
1.47478e-07
1.45532e-09
1.47518e-07
1.61135e-09
1.47691e-07
1.77281e-09
1.47744e-07
1.9866e-09
1.47951e-07
2.20357e-09
1.48025e-07
2.48955e-09
1.48272e-07
2.77586e-09
1.48379e-07
3.15358e-09
1.48674e-07
3.52766e-09
1.48826e-07
4.02325e-09
1.49177e-07
4.5095e-09
1.49391e-07
5.15783e-09
1.49809e-07
5.78852e-09
1.50101e-07
6.63616e-09
1.50602e-07
7.45398e-09
1.50992e-07
8.56337e-09
1.51591e-07
9.62509e-09
1.52099e-07
1.10804e-08
1.52813e-07
1.2462e-08
1.53461e-07
1.43778e-08
1.54305e-07
1.61815e-08
1.55107e-07
1.87148e-08
1.56086e-07
2.10795e-08
1.57043e-07
2.44473e-08
1.58141e-07
2.75635e-08
1.5922e-07
3.20674e-08
1.60368e-07
3.61989e-08
1.6147e-07
4.22553e-08
1.62489e-07
4.77756e-08
1.63392e-07
5.59356e-08
1.63848e-07
6.34094e-08
1.64142e-07
7.42666e-08
8.24234e-08
8.4748e-08
8.0515e-08
-4.73662e-08
4.76181e-08
8.2204e-08
-7.93589e-08
7.84086e-08
-5.34372e-08
5.4351e-08
-7.73085e-08
7.58439e-08
-6.07674e-08
6.21934e-08
-7.41455e-08
7.19854e-08
-6.88335e-08
7.09503e-08
-6.95118e-08
6.64509e-08
-7.74103e-08
8.04193e-08
-6.29888e-08
5.89486e-08
-8.6193e-08
9.01676e-08
-5.43861e-08
4.92305e-08
-9.49733e-08
1.00052e-07
-4.35326e-08
3.72686e-08
-1.02997e-07
1.09173e-07
-3.05125e-08
2.33064e-08
-1.09418e-07
1.16529e-07
-1.57495e-08
7.9388e-09
-1.13417e-07
1.21127e-07
1.46949e-07
9.13683e-10
1.47038e-07
9.27265e-10
1.471e-07
9.57973e-10
1.4721e-07
9.99568e-10
1.47266e-07
1.06303e-09
1.47402e-07
1.13525e-09
1.47459e-07
1.2357e-09
1.47624e-07
1.3431e-09
1.4769e-07
1.48728e-09
1.47889e-07
1.63665e-09
1.47973e-07
1.8343e-09
1.48214e-07
2.03517e-09
1.48328e-07
2.29977e-09
1.48617e-07
2.56509e-09
1.48774e-07
2.91491e-09
1.49123e-07
3.26199e-09
1.4934e-07
3.72156e-09
1.49761e-07
4.17346e-09
1.50057e-07
4.77567e-09
1.50567e-07
5.36302e-09
1.50966e-07
6.15204e-09
1.51585e-07
6.91576e-09
1.52115e-07
7.95126e-09
1.52871e-07
8.94628e-09
1.53565e-07
1.03095e-08
1.54486e-07
1.16103e-08
1.55381e-07
1.34129e-08
1.56502e-07
1.51218e-08
1.57635e-07
1.7519e-08
1.58987e-07
1.97781e-08
1.60393e-07
2.29881e-08
1.61997e-07
2.59985e-08
1.63691e-07
3.03305e-08
1.65534e-07
3.43827e-08
1.67482e-07
4.0275e-08
1.69471e-07
4.58e-08
1.71525e-07
5.3862e-08
1.73405e-07
6.15298e-08
1.75118e-07
7.25464e-08
8.95663e-08
8.34935e-08
8.67975e-08
-4.77287e-08
4.75921e-08
8.97397e-08
-8.64361e-08
8.59661e-08
-5.50171e-08
5.5456e-08
-8.53587e-08
8.43704e-08
-6.3435e-08
6.43914e-08
-8.31563e-08
8.13889e-08
-7.29094e-08
7.46412e-08
-7.92991e-08
7.63222e-08
-8.32668e-08
8.61982e-08
-7.29151e-08
6.88509e-08
-9.39073e-08
9.78999e-08
-6.40261e-08
5.84156e-08
-1.05276e-07
1.108e-07
-5.20403e-08
4.48594e-08
-1.15974e-07
1.23055e-07
-3.69502e-08
2.83648e-08
-1.24726e-07
1.33199e-07
-1.92393e-08
9.7204e-09
-1.30244e-07
1.39642e-07
1.46962e-07
8.22967e-10
1.47066e-07
8.35212e-10
1.47142e-07
8.62909e-10
1.47267e-07
9.00416e-10
1.47339e-07
9.57663e-10
1.47491e-07
1.0228e-09
1.47567e-07
1.11344e-09
1.47752e-07
1.21032e-09
1.47841e-07
1.34047e-09
1.48066e-07
1.47528e-09
1.48178e-07
1.65379e-09
1.4845e-07
1.83519e-09
1.486e-07
2.07434e-09
1.4893e-07
2.31413e-09
1.49133e-07
2.63059e-09
1.49534e-07
2.94463e-09
1.4981e-07
3.36086e-09
1.503e-07
3.77033e-09
1.50673e-07
4.31659e-09
1.51273e-07
4.8498e-09
1.51774e-07
5.56694e-09
1.52512e-07
6.26197e-09
1.53178e-07
7.20555e-09
1.5409e-07
8.11404e-09
1.54966e-07
9.36036e-09
1.56096e-07
1.05532e-08
1.57236e-07
1.22083e-08
1.58639e-07
1.37843e-08
1.60105e-07
1.59976e-08
1.61842e-07
1.8097e-08
1.63705e-07
2.10823e-08
1.6584e-07
2.39088e-08
1.68164e-07
2.7976e-08
1.70746e-07
3.18341e-08
1.73567e-07
3.74366e-08
1.76592e-07
4.27962e-08
1.79852e-07
5.05979e-08
1.83177e-07
5.82123e-08
1.86559e-07
6.91716e-08
9.65412e-08
8.02795e-08
9.32261e-08
-4.70897e-08
4.63013e-08
9.73678e-08
-9.41918e-08
9.43834e-08
-5.56281e-08
5.54141e-08
-9.44781e-08
9.42135e-08
-6.50979e-08
6.53417e-08
-9.37413e-08
9.27731e-08
-7.6145e-08
7.70926e-08
-9.14897e-08
8.95545e-08
-8.88524e-08
9.07653e-08
-4.36594e-08
-5.18145e-08
4.22273e-08
5.32639e-08
-3.91593e-08
-6.02793e-08
3.73493e-08
6.21248e-08
-3.21537e-08
-6.82241e-08
2.97864e-08
7.06416e-08
-2.23857e-08
-7.47893e-08
1.94144e-08
7.78242e-08
-1.0144e-08
8.22388e-08
-7.87898e-08
6.76832e-09
1.46974e-07
7.19591e-10
1.4709e-07
7.30313e-10
1.4718e-07
7.5455e-10
1.47319e-07
7.87395e-10
1.47406e-07
8.37497e-10
1.47575e-07
8.94546e-10
1.47668e-07
9.73891e-10
1.47872e-07
1.05878e-09
1.47981e-07
1.17274e-09
1.48229e-07
1.29091e-09
1.48368e-07
1.44729e-09
1.48669e-07
1.60639e-09
1.48851e-07
1.81602e-09
1.49217e-07
2.02651e-09
1.49462e-07
2.30412e-09
1.4991e-07
2.58006e-09
1.5024e-07
2.94559e-09
1.50789e-07
3.30585e-09
1.51234e-07
3.78622e-09
1.51912e-07
4.25617e-09
1.52506e-07
4.88791e-09
1.53347e-07
5.50186e-09
1.54137e-07
6.33498e-09
1.55187e-07
7.13987e-09
1.56228e-07
8.24353e-09
1.57546e-07
9.30445e-09
1.58909e-07
1.07757e-08
1.60569e-07
1.21846e-08
1.62344e-07
1.41621e-08
1.64439e-07
1.60516e-08
1.66735e-07
1.87366e-08
1.69376e-07
2.13035e-08
1.7232e-07
2.49952e-08
1.75637e-07
2.85393e-08
1.79358e-07
3.36919e-08
1.83476e-07
3.86856e-08
1.8806e-07
4.60061e-08
1.93048e-07
5.32158e-08
1.98391e-07
6.38387e-08
1.03856e-07
7.45288e-08
1.00262e-07
-4.51375e-08
4.3619e-08
1.05415e-07
-1.02598e-07
1.03614e-07
-5.48751e-08
5.38481e-08
-1.04578e-07
1.05273e-07
-6.52606e-08
6.45588e-08
-1.05778e-07
1.0586e-07
-7.78006e-08
7.77168e-08
-1.05539e-07
1.04561e-07
-9.28067e-08
9.37887e-08
-5.23148e-08
-5.63921e-08
5.16501e-08
5.70613e-08
-4.85404e-08
-6.67615e-08
4.70765e-08
6.82503e-08
-4.13533e-08
-7.75827e-08
3.88953e-08
8.00881e-08
-2.97875e-08
-8.72069e-08
2.61508e-08
9.09143e-08
-1.37988e-08
9.79547e-08
-9.33565e-08
9.28858e-09
1.46986e-07
6.05324e-10
1.47113e-07
6.1435e-10
1.47214e-07
6.34761e-10
1.47365e-07
6.62411e-10
1.47464e-07
7.04608e-10
1.47646e-07
7.52641e-10
1.47754e-07
8.19481e-10
1.47974e-07
8.90968e-10
1.48102e-07
9.87001e-10
1.4837e-07
1.08655e-09
1.4853e-07
1.21838e-09
1.48857e-07
1.35247e-09
1.49067e-07
1.52928e-09
1.49466e-07
1.7068e-09
1.49748e-07
1.94111e-09
1.50238e-07
2.17403e-09
1.50616e-07
2.48283e-09
1.51221e-07
2.78727e-09
1.51728e-07
3.19356e-09
1.52479e-07
3.59129e-09
1.53157e-07
4.12642e-09
1.54095e-07
4.64707e-09
1.54997e-07
5.35416e-09
1.56177e-07
6.03853e-09
1.5737e-07
6.97765e-09
1.58864e-07
7.88287e-09
1.60437e-07
9.13902e-09
1.62338e-07
1.03467e-08
1.64404e-07
1.20425e-08
1.66837e-07
1.36723e-08
1.69543e-07
1.59888e-08
1.72667e-07
1.82209e-08
1.76202e-07
2.14324e-08
1.80222e-07
2.45471e-08
1.84818e-07
2.90832e-08
1.89984e-07
3.35307e-08
1.95903e-07
4.00914e-08
2.02497e-07
4.66145e-08
2.09956e-07
5.64026e-08
1.10915e-07
6.62439e-08
1.07297e-07
-4.16575e-08
3.92714e-08
1.13343e-07
-1.11349e-07
1.13369e-07
-5.23993e-08
5.03796e-08
-1.15427e-07
1.17362e-07
-6.33749e-08
6.14482e-08
-1.192e-07
1.20761e-07
-7.71144e-08
7.55703e-08
-1.22018e-07
1.2268e-07
-9.426e-08
9.36242e-08
-6.31625e-08
-5.88249e-08
6.29545e-08
5.90254e-08
-6.11283e-08
-7.2321e-08
6.00476e-08
7.34141e-08
-5.49489e-08
-8.7707e-08
5.24607e-08
9.02381e-08
-4.17533e-08
-1.02813e-07
3.70266e-08
1.07621e-07
-2.00832e-08
1.19853e-07
-1.13247e-07
1.35846e-08
1.46995e-07
4.81703e-10
1.47132e-07
4.88894e-10
1.47243e-07
5.05144e-10
1.47405e-07
5.27174e-10
1.47516e-07
5.60772e-10
1.47709e-07
5.99048e-10
1.4783e-07
6.52274e-10
1.48065e-07
7.09252e-10
1.48208e-07
7.85744e-10
1.48493e-07
8.65113e-10
1.48673e-07
9.7015e-10
1.4902e-07
1.07711e-09
1.49256e-07
1.21804e-09
1.49681e-07
1.35972e-09
1.49994e-07
1.5466e-09
1.50519e-07
1.73261e-09
1.50938e-07
1.97909e-09
1.51587e-07
2.22245e-09
1.52148e-07
2.54706e-09
1.52958e-07
2.86537e-09
1.53707e-07
3.29348e-09
1.54724e-07
3.71081e-09
1.5572e-07
4.27744e-09
1.57007e-07
4.82712e-09
1.58328e-07
5.58133e-09
1.59969e-07
6.31036e-09
1.61718e-07
7.3221e-09
1.63825e-07
8.29822e-09
1.66141e-07
9.6694e-09
1.68867e-07
1.09928e-08
1.71934e-07
1.28759e-08
1.75489e-07
1.46996e-08
1.79559e-07
1.73303e-08
1.84229e-07
1.98951e-08
1.89643e-07
2.36528e-08
1.95823e-07
2.73517e-08
2.03039e-07
3.28788e-08
2.11261e-07
3.83728e-08
2.20863e-07
4.68283e-08
1.17593e-07
5.52603e-08
1.14211e-07
-3.6456e-08
3.31754e-08
1.20918e-07
-1.20069e-07
1.2324e-07
-4.78347e-08
4.46783e-08
-1.26567e-07
1.3002e-07
-5.88606e-08
5.5432e-08
-1.33538e-07
1.37082e-07
-7.3191e-08
6.9683e-08
-1.40543e-07
1.43728e-07
-9.19444e-08
8.88096e-08
-7.61629e-08
-5.8834e-08
7.67438e-08
5.82297e-08
-7.75114e-08
-7.58301e-08
7.73519e-08
7.59792e-08
-7.5358e-08
-9.7673e-08
7.46388e-08
9.84129e-08
-6.22665e-08
-1.22807e-07
5.61873e-08
1.28989e-07
-3.21246e-08
1.52655e-07
-1.42396e-07
2.20006e-08
1.47001e-07
3.50811e-10
1.47145e-07
3.56049e-10
1.47263e-07
3.67893e-10
1.47433e-07
3.83941e-10
1.47551e-07
4.08432e-10
1.47754e-07
4.36317e-10
1.47885e-07
4.75121e-10
1.4813e-07
5.16637e-10
1.48285e-07
5.72411e-10
1.48583e-07
6.30254e-10
1.48778e-07
7.06862e-10
1.49143e-07
7.84836e-10
1.49397e-07
8.87659e-10
1.49845e-07
9.90982e-10
1.50183e-07
1.12739e-09
1.50736e-07
1.26313e-09
1.51188e-07
1.44313e-09
1.51875e-07
1.62085e-09
1.52479e-07
1.85808e-09
1.53339e-07
2.09079e-09
1.54146e-07
2.40394e-09
1.5523e-07
2.70946e-09
1.56305e-07
3.12442e-09
1.57682e-07
3.52758e-09
1.59111e-07
4.08078e-09
1.60875e-07
4.61678e-09
1.62774e-07
5.36042e-09
1.65054e-07
6.08037e-09
1.6758e-07
7.09105e-09
1.70552e-07
8.07125e-09
1.73924e-07
9.46472e-09
1.77839e-07
1.08227e-08
1.82364e-07
1.27804e-08
1.87578e-07
1.47032e-08
1.937e-07
1.75231e-08
2.00735e-07
2.03194e-08
2.09107e-07
2.45199e-08
2.18743e-07
2.87169e-08
2.30344e-07
3.52642e-08
1.23312e-07
4.17975e-08
1.20445e-07
-2.94871e-08
2.53493e-08
1.27496e-07
-1.2818e-07
1.32567e-07
-4.09266e-08
3.6567e-08
-1.37256e-07
1.42412e-07
-5.12014e-08
4.60861e-08
-1.47848e-07
1.5381e-07
-6.50591e-08
5.91533e-08
-1.60006e-07
1.66654e-07
-8.40991e-08
7.75258e-08
-9.07956e-08
-5.47952e-08
9.26012e-08
5.29461e-08
-9.77858e-08
-7.44977e-08
9.91895e-08
7.30487e-08
-1.01179e-07
-1.03155e-07
1.03473e-07
5.07384e-08
5.00726e-08
-4.56642e-08
7.53198e-08