/*--------------------------------*- C++ -*----------------------------------*\
| =========                 |                                                 |
| \\      /  F ield         | foam-extend: Open Source CFD                    |
|  \\    /   O peration     | Version:     4.0                                |
|   \\  /    A nd           | Web:         http://www.foam-extend.org         |
|    \\/     M anipulation  |                                                 |
\*---------------------------------------------------------------------------*/
FoamFile
{
    version     2.0;
    format      ascii;
    class       volVectorField;
    location    "4e-05";
    object      U;
}
// * * * * * * * * * * * * * * * * * * * * * * * * * * * * * * * * * * * * * //

dimensions      [0 1 -1 0 0 0 0];

internalField   nonuniform List<vector> 
28770
(
(4.89458 0.00236712 0)
(5.09568 0.0023986 0)
(4.88574 0.00248205 0)
(5.08445 0.00257845 0)
(4.87718 0.00275092 0)
(5.07117 0.00291674 0)
(4.8682 0.00318964 0)
(5.05523 0.00343278 0)
(4.85799 0.00382392 0)
(5.03595 0.0041559 0)
(4.8456 0.00469027 0)
(5.01251 0.0051268 0)
(4.82989 0.00583756 0)
(4.98394 0.00639921 0)
(4.80946 0.0073288 0)
(4.94898 0.00804188 0)
(4.78263 0.00924311 0)
(4.90608 0.0101407 0)
(4.74739 0.0116776 0)
(4.85326 0.0128006 0)
(4.70123 0.0147488 0)
(4.78805 0.0161469 0)
(4.64119 0.0185925 0)
(4.70739 0.020325 0)
(4.56366 0.0233618 0)
(4.6075 0.0254973 0)
(4.46436 0.0292206 0)
(4.48391 0.0318354 0)
(4.33829 0.0363313 0)
(4.33132 0.0395054 0)
(4.17974 0.0448343 0)
(4.14376 0.0486439 0)
(3.98238 0.0548172 0)
(3.91477 0.059321 0)
(3.73954 0.0662738 0)
(3.63774 0.0714907 0)
(3.44468 0.0790565 0)
(3.3066 0.0849294 0)
(3.09218 0.0928259 0)
(2.91673 0.0991718 0)
(2.67834 0.107006 0)
(2.46603 0.113465 0)
(2.20267 0.120751 0)
(1.95616 0.126776 0)
(1.66913 0.13296 0)
(1.3936 0.137904 0)
(1.08686 0.142423 0)
(0.790104 0.145679 0)
(0.470238 0.14807 0)
(0.162239 0.149207 0)
(4.89461 0.00691799 0)
(5.09579 0.00702124 0)
(4.88592 0.0072439 0)
(5.08472 0.00756035 0)
(4.87751 0.00801898 0)
(5.0716 0.00856762 0)
(4.8687 0.00928951 0)
(5.05585 0.0101032 0)
(4.8587 0.0111311 0)
(5.03679 0.0122578 0)
(4.84656 0.0136521 0)
(5.01364 0.0151571 0)
(4.83113 0.0169988 0)
(4.9854 0.0189674 0)
(4.81106 0.0213618 0)
(4.95085 0.0239015 0)
(4.78469 0.0269826 0)
(4.90846 0.0302264 0)
(4.74999 0.0341615 0)
(4.85627 0.0382701 0)
(4.70451 0.0432639 0)
(4.79182 0.0484266 0)
(4.64528 0.0547237 0)
(4.71206 0.0611572 0)
(4.56872 0.0690406 0)
(4.61324 0.0769833 0)
(4.47056 0.0867661 0)
(4.49087 0.0964656 0)
(4.3458 0.10847 0)
(4.33964 0.120162 0)
(4.18869 0.13468 0)
(4.15354 0.148551 0)
(3.99284 0.165782 0)
(3.92598 0.18192 0)
(3.75145 0.201874 0)
(3.65025 0.220195 0)
(3.45784 0.242574 0)
(3.32009 0.262735 0)
(3.10612 0.286817 0)
(2.93062 0.308112 0)
(2.69233 0.332671 0)
(2.47948 0.353947 0)
(2.21571 0.377295 0)
(1.96811 0.396939 0)
(1.68002 0.417088 0)
(1.40286 0.43317 0)
(1.09447 0.448083 0)
(0.795633 0.458695 0)
(0.473693 0.466652 0)
(0.163352 0.470367 0)
(4.89468 0.0115119 0)
(5.096 0.0116767 0)
(4.88627 0.0120617 0)
(5.08521 0.0125653 0)
(4.87816 0.0133594 0)
(5.07242 0.0142299 0)
(4.8697 0.0154828 0)
(5.05703 0.0167685 0)
(4.8601 0.0185577 0)
(5.03842 0.0203291 0)
(4.84844 0.022764 0)
(5.01579 0.0251171 0)
(4.83362 0.0283438 0)
(4.98821 0.0314042 0)
(4.81429 0.0356116 0)
(4.95448 0.0395386 0)
(4.78883 0.044965 0)
(4.91311 0.049957 0)
(4.75526 0.0568967 0)
(4.86217 0.0631956 0)
(4.71118 0.0720044 0)
(4.79927 0.079899 0)
(4.65366 0.0909954 0)
(4.7214 0.100822 0)
(4.57915 0.114681 0)
(4.62486 0.126816 0)
(4.48343 0.14395 0)
(4.50516 0.158799 0)
(4.3615 0.179717 0)
(4.35698 0.197681 0)
(4.20754 0.222816 0)
(4.17422 0.244248 0)
(4.01505 0.273848 0)
(3.95011 0.298972 0)
(3.77701 0.33294 0)
(3.67759 0.361744 0)
(3.48633 0.399464 0)
(3.34992 0.431535 0)
(3.13661 0.471718 0)
(2.96163 0.506031 0)
(2.72322 0.546652 0)
(2.50972 0.581343 0)
(2.24477 0.619729 0)
(1.99512 0.652011 0)
(1.7046 0.685005 0)
(1.42395 0.71153 0)
(1.11185 0.735881 0)
(0.808286 0.753397 0)
(0.481667 0.766364 0)
(0.165876 0.772494 0)
(4.89477 0.0157896 0)
(5.09633 0.0160222 0)
(4.88679 0.016538 0)
(5.08599 0.0172496 0)
(4.87914 0.0183127 0)
(5.07368 0.0195452 0)
(4.87119 0.0212203 0)
(5.05886 0.0230457 0)
(4.86219 0.0254342 0)
(5.04091 0.0279582 0)
(4.85124 0.0312032 0)
(5.0191 0.0345696 0)
(4.83729 0.038863 0)
(4.99251 0.0432595 0)
(4.81903 0.048851 0)
(4.96001 0.0545161 0)
(4.79489 0.0617227 0)
(4.92015 0.0689525 0)
(4.76295 0.0781701 0)
(4.87106 0.087325 0)
(4.72087 0.0990377 0)
(4.81041 0.110546 0)
(4.66577 0.125333 0)
(4.73525 0.139692 0)
(4.59417 0.158222 0)
(4.6419 0.175987 0)
(4.50188 0.199005 0)
(4.52589 0.220768 0)
(4.38388 0.249045 0)
(4.38185 0.275389 0)
(4.23429 0.309633 0)
(4.20351 0.341059 0)
(4.04642 0.38177 0)
(3.98385 0.418583 0)
(3.81292 0.46583 0)
(3.71539 0.507971 0)
(3.52618 0.561106 0)
(3.39084 0.60793 0)
(3.17907 0.66529 0)
(3.00399 0.715291 0)
(2.76607 0.773994 0)
(2.55104 0.824522 0)
(2.28491 0.880535 0)
(2.03203 0.927681 0)
(1.7383 0.976216 0)
(1.45268 1.01515 0)
(1.13547 1.05122 0)
(0.825481 1.07707 0)
(0.492392 1.09637 0)
(0.169355 1.10545 0)
(4.89491 0.0199732 0)
(5.09673 0.0202617 0)
(4.88747 0.0209262 0)
(5.08695 0.0218081 0)
(4.88041 0.0231788 0)
(5.07526 0.0247043 0)
(4.87313 0.0268667 0)
(5.06116 0.0291221 0)
(4.86491 0.03221 0)
(5.04406 0.0353218 0)
(4.85492 0.0395242 0)
(5.02329 0.0436648 0)
(4.84213 0.0492352 0)
(4.99799 0.0546303 0)
(4.82531 0.0618974 0)
(4.96709 0.0688346 0)
(4.80296 0.0782159 0)
(4.92921 0.0870542 0)
(4.77325 0.0990693 0)
(4.88261 0.110248 0)
(4.73392 0.125531 0)
(4.82502 0.139579 0)
(4.68219 0.158886 0)
(4.75361 0.176419 0)
(4.61469 0.200624 0)
(4.66479 0.222343 0)
(4.52728 0.252415 0)
(4.55416 0.27908 0)
(4.41498 0.316018 0)
(4.41631 0.348397 0)
(4.27184 0.393115 0)
(4.24485 0.43191 0)
(4.09096 0.485035 0)
(4.03241 0.530742 0)
(3.86454 0.592319 0)
(3.77088 0.645045 0)
(3.58421 0.714155 0)
(3.45194 0.773336 0)
(3.24173 0.847735 0)
(3.06807 0.911723 0)
(2.83017 0.987684 0)
(2.61404 1.05319 0)
(2.34578 1.12568 0)
(2.08881 1.18735 0)
(1.79025 1.25026 0)
(1.49739 1.3014 0)
(1.17248 1.3482 0)
(0.852498 1.3822 0)
(0.509457 1.40726 0)
(0.174764 1.4192 0)
(4.89506 0.0237195 0)
(5.09726 0.024068 0)
(4.8883 0.0248471 0)
(5.08819 0.0259132 0)
(4.88198 0.0275196 0)
(5.07729 0.029366 0)
(4.87552 0.0318985 0)
(5.06409 0.0346333 0)
(4.86826 0.0382471 0)
(5.04808 0.0420288 0)
(4.85941 0.0469434 0)
(5.02861 0.0519883 0)
(4.84803 0.0584988 0)
(5.00491 0.0650905 0)
(4.83294 0.0735818 0)
(4.97599 0.0820818 0)
(4.81273 0.0930453 0)
(4.94056 0.103906 0)
(4.78566 0.117958 0)
(4.89697 0.131733 0)
(4.74959 0.149633 0)
(4.84307 0.16699 0)
(4.70184 0.189656 0)
(4.77612 0.211377 0)
(4.63914 0.239887 0)
(4.69261 0.266866 0)
(4.55743 0.302443 0)
(4.58817 0.335655 0)
(4.45175 0.379606 0)
(4.45734 0.420052 0)
(4.31606 0.473649 0)
(4.29351 0.522254 0)
(4.14319 0.586508 0)
(4.08889 0.643954 0)
(3.92484 0.719268 0)
(3.83469 0.78574 0)
(3.65179 0.871402 0)
(3.52163 0.946228 0)
(3.31457 1.03982 0)
(3.14102 1.12097 0)
(2.90459 1.21788 0)
(2.68616 1.30132 0)
(2.41627 1.39477 0)
(2.154 1.47399 0)
(1.84998 1.55585 0)
(1.54858 1.62227 0)
(1.21458 1.68374 0)
(0.883308 1.72834 0)
(0.528617 1.76148 0)
(0.181048 1.77724 0)
(4.89525 0.0272454 0)
(5.09783 0.0276409 0)
(4.88928 0.0285469 0)
(5.08957 0.0297562 0)
(4.88379 0.0316251 0)
(5.07955 0.0337181 0)
(4.87829 0.0366672 0)
(5.06738 0.039764 0)
(4.87215 0.043977 0)
(5.05258 0.0482542 0)
(4.86467 0.0539915 0)
(5.0346 0.0596906 0)
(4.85496 0.0673022 0)
(5.01276 0.0747403 0)
(4.84195 0.084683 0)
(4.98615 0.0942664 0)
(4.82433 0.107124 0)
(4.95361 0.119363 0)
(4.8005 0.135868 0)
(4.91362 0.151392 0)
(4.76844 0.172452 0)
(4.86421 0.192024 0)
(4.72566 0.218736 0)
(4.80279 0.243261 0)
(4.66903 0.276923 0)
(4.72605 0.307445 0)
(4.59464 0.34954 0)
(4.62971 0.387218 0)
(4.49762 0.43935 0)
(4.50839 0.485399 0)
(4.37192 0.549154 0)
(4.35536 0.604743 0)
(4.21013 0.681413 0)
(4.16241 0.747494 0)
(4.00337 0.837623 0)
(3.91985 0.91469 0)
(3.74136 1.0174 0)
(3.61685 1.10513 0)
(3.41283 1.21738 0)
(3.24242 1.31404 0)
(3.00677 1.43021 0)
(2.78725 1.5315 0)
(2.51485 1.64402 0)
(2.24653 1.74131 0)
(1.93544 1.8404 0)
(1.62261 1.92239 0)
(1.27634 1.99705 0)
(0.928627 2.05216 0)
(0.557344 2.09248 0)
(0.190197 2.11195 0)
(4.89544 0.0302334 0)
(5.09853 0.0306777 0)
(4.89037 0.0316748 0)
(5.09121 0.0330342 0)
(4.88585 0.0350906 0)
(5.08223 0.0374455 0)
(4.88144 0.0406894 0)
(5.07125 0.0441786 0)
(4.87657 0.0488114 0)
(5.05788 0.0536389 0)
(4.87061 0.0599463 0)
(5.04164 0.0663917 0)
(4.86276 0.0747591 0)
(5.02193 0.0831901 0)
(4.85206 0.0941229 0)
(4.99796 0.105012 0)
(4.8373 0.119159 0)
(4.96871 0.1331 0)
(4.81703 0.151283 0)
(4.93279 0.169014 0)
(4.78937 0.192257 0)
(4.88839 0.214675 0)
(4.75201 0.244235 0)
(4.83309 0.272413 0)
(4.70199 0.309799 0)
(4.76372 0.34499 0)
(4.63555 0.39196 0)
(4.67611 0.435575 0)
(4.54789 0.494097 0)
(4.56485 0.547652 0)
(4.43292 0.619772 0)
(4.42302 0.684775 0)
(4.28297 0.772362 0)
(4.24185 0.850112 0)
(4.08855 0.954385 0)
(4.01072 1.04567 0)
(3.83827 1.16642 0)
(3.71744 1.27102 0)
(3.51912 1.40553 0)
(3.34942 1.52152 0)
(3.11752 1.66341 0)
(2.89552 1.7859 0)
(2.62172 1.92483 0)
(2.3463 2.04426 0)
(2.02728 2.1681 0)
(1.70196 2.27059 0)
(1.34166 2.36522 0)
(0.976754 2.43528 0)
(0.587162 2.48698 0)
(0.200113 2.51198 0)
(4.89569 0.0328918 0)
(5.09924 0.0333713 0)
(4.89158 0.0344662 0)
(5.09291 0.0359326 0)
(4.88811 0.0381918 0)
(5.08503 0.0407311 0)
(4.88488 0.0442975 0)
(5.07533 0.0480578 0)
(4.88142 0.0531561 0)
(5.06348 0.0583556 0)
(4.87716 0.0653048 0)
(5.04911 0.0722428 0)
(4.8714 0.0814742 0)
(5.03172 0.0905459 0)
(4.86331 0.102626 0)
(5.01066 0.11434 0)
(4.85184 0.129998 0)
(4.98506 0.145001 0)
(4.83566 0.165161 0)
(4.95374 0.184258 0)
(4.81315 0.210082 0)
(4.91511 0.234261 0)
(4.78219 0.267183 0)
(4.86699 0.297637 0)
(4.74009 0.339395 0)
(4.8065 0.377533 0)
(4.68334 0.430187 0)
(4.72972 0.477618 0)
(4.60736 0.543514 0)
(4.63145 0.601997 0)
(4.50618 0.683654 0)
(4.50477 0.754984 0)
(4.37202 0.854798 0)
(4.34064 0.940615 0)
(4.19485 1.06027 0)
(4.12746 1.16179 0)
(3.96201 1.30117 0)
(3.85098 1.41889 0)
(3.65811 1.57449 0)
(3.49492 1.70772 0)
(3.26564 1.87146 0)
(3.04323 2.01654 0)
(2.76783 2.17855 0)
(2.48473 2.32208 0)
(2.15705 2.46797 0)
(1.81561 2.59164 0)
(1.4376 2.70372 0)
(1.04785 2.78821 0)
(0.632445 2.84954 0)
(0.21468 2.87965 0)
(4.89591 0.0349384 0)
(5.10008 0.0354527 0)
(4.89288 0.0366092 0)
(5.09485 0.0381829 0)
(4.89055 0.0405691 0)
(5.08821 0.0432963 0)
(4.88861 0.0470628 0)
(5.07993 0.0511059 0)
(4.88666 0.0564899 0)
(5.06978 0.0620885 0)
(4.88421 0.0694278 0)
(5.05747 0.0769114 0)
(4.88068 0.0866636 0)
(5.04264 0.096468 0)
(4.87536 0.109237 0)
(5.02477 0.121925 0)
(4.86733 0.138493 0)
(5.00314 0.154782 0)
(4.85547 0.176148 0)
(4.97678 0.196936 0)
(4.83833 0.224364 0)
(4.9443 0.250765 0)
(4.81407 0.285835 0)
(4.9038 0.319204 0)
(4.78022 0.36386 0)
(4.85262 0.405822 0)
(4.73355 0.46241 0)
(4.78707 0.51486 0)
(4.66968 0.586131 0)
(4.70207 0.651204 0)
(4.58272 0.740237 0)
(4.5906 0.820208 0)
(4.46474 0.930186 0)
(4.44304 1.02728 0)
(4.30512 1.16097 0)
(4.24661 1.27702 0)
(4.09002 1.43578 0)
(3.98507 1.57176 0)
(3.80193 1.75368 0)
(3.6402 1.90895 0)
(3.41991 2.10608 0)
(3.19621 2.27659 0)
(2.9209 2.47302 0)
(2.62969 2.64581 0)
(2.29122 2.82547 0)
(1.9328 2.97882 0)
(1.53413 3.11997 0)
(1.11954 3.2276 0)
(0.676697 3.30638 0)
(0.229594 3.34536 0)
(4.89619 0.0365706 0)
(5.10088 0.0371058 0)
(4.89426 0.0383255 0)
(5.09679 0.039963 0)
(4.89312 0.0424805 0)
(5.09139 0.0453176 0)
(4.89253 0.0492938 0)
(5.08456 0.0534987 0)
(4.89217 0.0591875 0)
(5.07615 0.0650086 0)
(4.89167 0.0727716 0)
(5.06598 0.0805515 0)
(4.89055 0.0908799 0)
(5.05382 0.101073 0)
(4.88824 0.114616 0)
(5.03931 0.127814 0)
(4.88401 0.145416 0)
(5.02193 0.162373 0)
(4.87694 0.185118 0)
(5.00096 0.206789 0)
(4.86586 0.236057 0)
(4.9753 0.263635 0)
(4.84921 0.301167 0)
(4.94339 0.33612 0)
(4.8249 0.384087 0)
(4.90299 0.428196 0)
(4.7901 0.489265 0)
(4.85086 0.544635 0)
(4.74086 0.622017 0)
(4.78234 0.691054 0)
(4.67167 0.788479 0)
(4.69076 0.873783 0)
(4.57477 0.995325 0)
(4.56662 1.09947 0)
(4.43939 1.24898 0)
(4.39654 1.37421 0)
(4.25062 1.55387 0)
(4.16225 1.70193 0)
(3.98828 1.90886 0)
(3.83998 2.08179 0)
(3.62562 2.30279 0)
(3.40252 2.50411 0)
(3.12936 2.72961 0)
(2.82984 2.93653 0)
(2.48312 3.14631 0)
(2.10398 3.32985 0)
(1.6812 3.49566 0)
(1.23037 3.62385 0)
(0.747754 3.71637 0)
(0.252854 3.76262 0)
(4.89644 0.0375474 0)
(5.10179 0.0381014 0)
(4.89568 0.0393488 0)
(5.09892 0.0410444 0)
(4.8958 0.0436191 0)
(5.09488 0.0465588 0)
(4.89662 0.0506256 0)
(5.08961 0.0549868 0)
(4.89793 0.0608059 0)
(5.08308 0.066851 0)
(4.89943 0.0747942 0)
(5.0752 0.0828856 0)
(4.90078 0.0934592 0)
(5.06588 0.10408 0)
(4.90154 0.117956 0)
(5.05492 0.131734 0)
(4.90116 0.149791 0)
(5.04202 0.167535 0)
(4.89896 0.19091 0)
(5.02666 0.213646 0)
(4.89399 0.243798 0)
(5.00806 0.27282 0)
(4.88504 0.311609 0)
(4.98499 0.348529 0)
(4.87038 0.398305 0)
(4.9556 0.44511 0)
(4.84756 0.508809 0)
(4.91706 0.567904 0)
(4.81304 0.64914 0)
(4.86507 0.723363 0)
(4.76164 0.826474 0)
(4.79313 0.91905 0)
(4.68572 1.04903 0)
(4.69141 1.16341 0)
(4.57413 1.32558 0)
(4.54514 1.46511 0)
(4.4109 1.66413 0)
(4.33265 1.83171 0)
(4.17388 2.06911 0)
(4.02592 2.26719 0)
(3.83343 2.53538 0)
(3.61414 2.76603 0)
(3.34429 3.03582 0)
(3.03771 3.28263 0)
(2.67635 3.53938 0)
(2.27486 3.76869 0)
(1.822 3.97959 0)
(1.33565 4.14675 0)
(0.812575 4.26851 0)
(0.274882 4.33043 0)
(4.89673 0.038055 0)
(5.10264 0.0386142 0)
(4.89714 0.0398864 0)
(5.10097 0.0415976 0)
(4.89852 0.0442244 0)
(5.09825 0.0471909 0)
(4.90078 0.0513423 0)
(5.09453 0.055743 0)
(4.90379 0.0616877 0)
(5.08985 0.0677875 0)
(4.90737 0.07591 0)
(5.08426 0.0840761 0)
(4.91131 0.0949012 0)
(5.07781 0.105624 0)
(4.91532 0.11985 0)
(5.07048 0.133772 0)
(4.91906 0.152317 0)
(5.06219 0.170269 0)
(4.92209 0.194323 0)
(5.05274 0.21737 0)
(4.9238 0.248477 0)
(5.04169 0.277971 0)
(4.92334 0.318115 0)
(5.02828 0.355764 0)
(4.91947 0.407488 0)
(5.0112 0.455425 0)
(4.91034 0.521971 0)
(4.98827 0.582815 0)
(4.89308 0.668284 0)
(4.95598 0.745177 0)
(4.86328 0.854696 0)
(4.90869 0.951243 0)
(4.81405 1.0911 0)
(4.8374 1.21112 0)
(4.73481 1.38874 0)
(4.72805 1.53563 0)
(4.60958 1.7587 0)
(4.5588 1.93469 0)
(4.41469 2.20599 0)
(4.29654 2.4148 0)
(4.11407 2.70247 0)
(3.89255 2.98136 0)
(3.6352 3.29002 0)
(3.32292 3.58751 0)
(2.95906 3.88852 0)
(2.53502 4.16204 0)
(2.05139 4.40974 0)
(1.51328 4.60676 0)
(0.927605 4.74892 0)
(0.313483 4.82132 0)
(4.89698 0.0378973 0)
(5.10359 0.038458 0)
(4.8986 0.0397216 0)
(5.10317 0.041438 0)
(4.90127 0.0440471 0)
(5.10185 0.0470243 0)
(4.90499 0.0511482 0)
(5.09974 0.0555684 0)
(4.90972 0.0614753 0)
(5.097 0.067609 0)
(4.91538 0.075683 0)
(5.0938 0.0839055 0)
(4.92188 0.0946731 0)
(5.09031 0.105487 0)
(4.9291 0.119652 0)
(5.08671 0.133718 0)
(4.9369 0.152208 0)
(5.08315 0.170383 0)
(4.94508 0.194414 0)
(5.07968 0.217805 0)
(4.95333 0.24896 0)
(5.07624 0.278987 0)
(4.96121 0.319324 0)
(5.0725 0.357796 0)
(4.96796 0.409987 0)
(5.0677 0.459201 0)
(4.97229 0.526696 0)
(5.06032 0.589539 0)
(4.97202 0.67678 0)
(5.0476 0.756832 0)
(4.96341 0.869487 0)
(5.02461 0.971068 0)
(4.94018 1.11628 0)
(4.98285 1.24436 0)
(4.89189 1.43092 0)
(4.9074 1.59073 0)
(4.80165 1.82901 0)
(4.77063 2.02534 0)
(4.64398 2.3261 0)
(4.51206 2.56444 0)
(4.38819 2.93245 0)
(4.18945 3.23858 0)
(3.93782 3.59639 0)
(3.62374 3.94929 0)
(3.23892 4.31513 0)
(2.78523 4.66321 0)
(2.25746 4.98582 0)
(1.66777 5.2539 0)
(1.02266 5.45018 0)
(0.345766 5.55289 0)
(4.89728 0.0372487 0)
(5.10443 0.0377981 0)
(4.90006 0.0390466 0)
(5.1052 0.0407284 0)
(4.90399 0.0433071 0)
(5.10521 0.0462243 0)
(4.90915 0.0503022 0)
(5.10464 0.0546336 0)
(4.91558 0.0604783 0)
(5.10376 0.0664899 0)
(4.92333 0.074486 0)
(5.10286 0.0825476 0)
(4.93244 0.0932229 0)
(5.10226 0.103832 0)
(4.94296 0.117894 0)
(5.10236 0.131708 0)
(4.95496 0.150093 0)
(5.10352 0.167971 0)
(4.96852 0.191912 0)
(5.10615 0.214973 0)
(4.9837 0.246087 0)
(5.11059 0.275778 0)
(5.0005 0.31619 0)
(5.11705 0.354384 0)
(5.01876 0.406884 0)
(5.12547 0.455992 0)
(5.03796 0.524252 0)
(5.13523 0.587368 0)
(5.05689 0.67623 0)
(5.14467 0.757272 0)
(5.07305 0.873147 0)
(5.15033 0.976961 0)
(5.08164 1.12841 0)
(5.14549 1.26062 0)
(5.07396 1.45947 0)
(5.11783 1.62537 0)
(5.03514 1.88978 0)
(5.04553 2.08958 0)
(4.94255 2.45638 0)
(4.89024 2.66476 0)
(4.77416 3.01495 0)
(4.54265 3.41995 0)
(4.33109 3.83979 0)
(4.02667 4.26781 0)
(3.6581 4.70412 0)
(3.19173 5.11718 0)
(2.62976 5.49688 0)
(1.96796 5.8083 0)
(1.22037 6.03516 0)
(0.414055 6.1528 0)
(4.89752 0.03596 0)
(5.10535 0.0364936 0)
(4.90147 0.0376966 0)
(5.10734 0.0393302 0)
(4.90665 0.0418152 0)
(5.1087 0.0446502 0)
(4.91323 0.0485806 0)
(5.10971 0.0527929 0)
(4.92133 0.0584282 0)
(5.11072 0.0642799 0)
(4.9311 0.0719932 0)
(5.11215 0.0798494 0)
(4.94272 0.0901545 0)
(5.11447 0.100508 0)
(4.9564 0.114096 0)
(5.11824 0.127598 0)
(4.97241 0.14539 0)
(5.1241 0.162897 0)
(4.9911 0.186111 0)
(5.13273 0.208743 0)
(5.01287 0.23899 0)
(5.14489 0.26821 0)
(5.03818 0.307625 0)
(5.16131 0.345341 0)
(5.06745 0.396758 0)
(5.18262 0.445468 0)
(5.10093 0.512664 0)
(5.20914 0.57563 0)
(5.13839 0.663658 0)
(5.24041 0.745134 0)
(5.17852 0.860774 0)
(5.27456 0.966242 0)
(5.21793 1.11863 0)
(5.30701 1.25493 0)
(5.24904 1.45643 0)
(5.32875 1.63132 0)
(5.25619 1.89908 0)
(5.32543 2.1182 0)
(5.20719 2.47838 0)
(5.28688 2.73134 0)
(5.12147 3.15665 0)
(4.89748 3.40597 0)
(4.69259 3.82018 0)
(4.41827 4.29331 0)
(4.05661 4.78385 0)
(3.59127 5.2897 0)
(3.01045 5.79132 0)
(2.31712 6.25151 0)
(1.52103 6.62589 0)
(0.651533 6.86939 0)
(4.8978 0.0341931 0)
(5.10613 0.0346992 0)
(4.90283 0.0358481 0)
(5.10924 0.0373979 0)
(4.9092 0.0397717 0)
(5.11183 0.0424613 0)
(4.91712 0.0462176 0)
(5.11428 0.0502144 0)
(4.92683 0.055603 0)
(5.11704 0.0611567 0)
(4.93857 0.0685379 0)
(5.12064 0.0759977 0)
(4.95267 0.0858683 0)
(5.12571 0.0957067 0)
(4.96949 0.108737 0)
(5.133 0.121583 0)
(4.98953 0.138668 0)
(5.14339 0.155354 0)
(5.01342 0.177684 0)
(5.15793 0.199307 0)
(5.04193 0.228467 0)
(5.1778 0.256475 0)
(5.07603 0.294582 0)
(5.20433 0.33089 0)
(5.1168 0.380785 0)
(5.23896 0.427943 0)
(5.16541 0.493464 0)
(5.28308 0.554879 0)
(5.22286 0.641251 0)
(5.33769 0.721508 0)
(5.28955 0.835883 0)
(5.40282 0.941184 0)
(5.36432 1.09338 0)
(5.47625 1.23218 0)
(5.44251 1.43549 0)
(5.55126 1.61956 0)
(5.51188 1.89087 0)
(5.61277 2.13794 0)
(5.54291 2.49244 0)
(5.63274 2.83714 0)
(5.60137 3.22675 0)
(5.32557 3.53995 0)
(5.17575 4.03863 0)
(4.94446 4.59298 0)
(4.60759 5.18771 0)
(4.13609 5.80801 0)
(3.51482 6.44977 0)
(2.73896 7.05309 0)
(1.81899 7.54839 0)
(0.789999 7.86796 0)
(4.89802 0.0318457 0)
(5.10697 0.0323195 0)
(4.90411 0.033388 0)
(5.11118 0.0348389 0)
(4.91161 0.037047 0)
(5.11501 0.0395661 0)
(4.92082 0.0430607 0)
(5.1189 0.0468063 0)
(4.93204 0.0518212 0)
(5.12339 0.0570298 0)
(4.94563 0.0639027 0)
(5.12912 0.0709055 0)
(4.96202 0.080103 0)
(5.13686 0.089349 0)
(4.98173 0.101503 0)
(5.14755 0.113592 0)
(5.00548 0.129551 0)
(5.1623 0.145276 0)
(5.03413 0.166174 0)
(5.18245 0.18659 0)
(5.06885 0.213947 0)
(5.20962 0.240452 0)
(5.11105 0.276315 0)
(5.24572 0.310774 0)
(5.16249 0.35792 0)
(5.29296 0.402845 0)
(5.22523 0.46507 0)
(5.35384 0.52387 0)
(5.30154 0.606418 0)
(5.43099 0.683769 0)
(5.39362 0.79396 0)
(5.52669 0.896353 0)
(5.50286 1.04448 0)
(5.642 1.18104 0)
(5.62835 1.38158 0)
(5.77464 1.56542 0)
(5.76378 1.83823 0)
(5.91445 2.08926 0)
(5.89181 2.45877 0)
(6.0311 2.81261 0)
(6.13176 3.24153 0)
(5.81888 3.62875 0)
(5.73616 4.20416 0)
(5.57083 4.85418 0)
(5.28625 5.56734 0)
(4.82214 6.30663 0)
(4.16522 7.14633 0)
(3.29714 7.95991 0)
(2.2202 8.64148 0)
(0.977647 9.08356 0)
(4.89827 0.0290665 0)
(5.10764 0.0294981 0)
(4.9053 0.0304769 0)
(5.11282 0.0317987 0)
(4.91383 0.0338218 0)
(5.11772 0.0361169 0)
(4.92421 0.0393199 0)
(5.12286 0.0427329 0)
(4.93684 0.0473314 0)
(5.12887 0.0520791 0)
(4.95216 0.058385 0)
(5.1365 0.0647713 0)
(4.97072 0.0732164 0)
(5.14666 0.0816554 0)
(4.99322 0.0928256 0)
(5.16046 0.103872 0)
(5.02055 0.118556 0)
(5.17925 0.132952 0)
(5.05387 0.152206 0)
(5.20471 0.170941 0)
(5.09467 0.196193 0)
(5.23887 0.220594 0)
(5.14489 0.253774 0)
(5.28424 0.285637 0)
(5.20696 0.329388 0)
(5.34388 0.371166 0)
(5.28392 0.429138 0)
(5.42148 0.484235 0)
(5.37943 0.561535 0)
(5.52132 0.634749 0)
(5.49771 0.738606 0)
(5.64812 0.836851 0)
(5.64307 0.97759 0)
(5.80633 1.11109 0)
(5.81888 1.30347 0)
(5.99841 1.48784 0)
(6.02481 1.75264 0)
(6.22038 2.01262 0)
(6.25119 2.37776 0)
(6.45066 2.75347 0)
(6.63405 3.17455 0)
(6.36218 3.6517 0)
(6.37508 4.29836 0)
(6.3108 5.05467 0)
(6.13611 5.92113 0)
(5.75251 7.06031 0)
(5.13239 8.14529 0)
(4.13696 9.18912 0)
(2.75612 10.0643 0)
(1.05465 10.6066 0)
(4.89844 0.025798 0)
(5.10835 0.0261827 0)
(4.90636 0.0270505 0)
(5.11446 0.0282288 0)
(4.91584 0.0300226 0)
(5.12039 0.0320692 0)
(4.9273 0.0349097 0)
(5.12674 0.0379546 0)
(4.94119 0.0420339 0)
(5.13421 0.0462722 0)
(4.95806 0.0518686 0)
(5.14364 0.0575738 0)
(4.97855 0.0650739 0)
(5.15606 0.0726188 0)
(5.00349 0.0825485 0)
(5.17274 0.0924344 0)
(5.03395 0.105504 0)
(5.19525 0.118401 0)
(5.07133 0.135569 0)
(5.22552 0.152376 0)
(5.11747 0.17494 0)
(5.26601 0.196866 0)
(5.17474 0.226601 0)
(5.31975 0.255292 0)
(5.24623 0.294644 0)
(5.39063 0.33237 0)
(5.33594 0.38476 0)
(5.48348 0.434701 0)
(5.44892 0.504989 0)
(5.60437 0.571694 0)
(5.59152 0.666905 0)
(5.7607 0.75704 0)
(5.77139 0.887513 0)
(5.96109 1.01114 0)
(5.99725 1.19235 0)
(6.21444 1.36517 0)
(6.27762 1.62064 0)
(6.52655 1.8681 0)
(6.61723 2.23381 0)
(6.89035 2.59834 0)
(7.16151 3.0194 0)
(6.95622 3.57985 0)
(7.08747 4.28757 0)
(7.15632 5.14913 0)
(7.11272 6.1935 0)
(6.98603 7.56186 0)
(6.42563 8.95536 0)
(5.38559 10.4 0)
(3.73364 11.6878 0)
(1.49668 12.5222 0)
(4.89864 0.0221747 0)
(5.10887 0.0225047 0)
(4.9073 0.0232529 0)
(5.11573 0.024264 0)
(4.91759 0.0258107 0)
(5.1225 0.0275669 0)
(4.92997 0.0300167 0)
(5.12984 0.0326299 0)
(4.94498 0.0361494 0)
(5.1385 0.0397878 0)
(4.96323 0.0446182 0)
(5.14943 0.0495183 0)
(4.98546 0.0559951 0)
(5.16377 0.0624803 0)
(5.01263 0.0710607 0)
(5.18294 0.0795677 0)
(5.04598 0.0908702 0)
(5.20869 0.101986 0)
(5.08714 0.116848 0)
(5.24326 0.131365 0)
(5.13824 0.150924 0)
(5.28945 0.16992 0)
(5.2021 0.195736 0)
(5.35086 0.220692 0)
(5.28243 0.254932 0)
(5.43212 0.287916 0)
(5.38411 0.333632 0)
(5.5392 0.377593 0)
(5.51357 0.439162 0)
(5.67986 0.498394 0)
(5.67919 0.582225 0)
(5.86413 0.663165 0)
(5.89187 0.778865 0)
(6.10482 0.891441 0)
(6.16554 1.05382 0)
(6.41777 1.2138 0)
(6.51726 1.44651 0)
(6.82078 1.67951 0)
(6.96621 2.02223 0)
(7.32858 2.37007 0)
(7.66325 2.75787 0)
(7.57892 3.38669 0)
(7.85914 4.12974 0)
(8.10941 5.06886 0)
(8.28054 6.25642 0)
(8.47969 7.84733 0)
(8.15165 9.68076 0)
(7.2194 11.7435 0)
(5.29458 13.7376 0)
(2.23911 15.143 0)
(4.89876 0.0181802 0)
(5.10941 0.0184518 0)
(4.90809 0.0190645 0)
(5.11696 0.0198966 0)
(4.91907 0.0211634 0)
(5.12451 0.0226089 0)
(4.93226 0.0246157 0)
(5.13275 0.0267675 0)
(4.9482 0.0296511 0)
(5.1425 0.0326482 0)
(4.96759 0.0366076 0)
(5.15478 0.0406459 0)
(4.99124 0.0459578 0)
(5.17081 0.0513052 0)
(5.02022 0.0583479 0)
(5.19214 0.0653662 0)
(5.0559 0.0746531 0)
(5.22069 0.0838296 0)
(5.1001 0.0960581 0)
(5.25889 0.108051 0)
(5.15522 0.124174 0)
(5.30988 0.139881 0)
(5.22445 0.161213 0)
(5.37772 0.181871 0)
(5.31206 0.210251 0)
(5.46769 0.2376 0)
(5.42375 0.275645 0)
(5.58681 0.312178 0)
(5.56721 0.363688 0)
(5.74445 0.413077 0)
(5.75285 0.483715 0)
(5.95324 0.551535 0)
(5.99491 0.649994 0)
(6.23032 0.744994 0)
(6.31289 0.885111 0)
(6.59895 1.02152 0)
(6.73363 1.22633 0)
(7.09028 1.42802 0)
(7.29341 1.73808 0)
(7.74403 2.04601 0)
(8.13726 2.38249 0)
(8.20577 3.04737 0)
(8.6588 3.78473 0)
(9.13787 4.75165 0)
(9.60922 6.03249 0)
(10.3035 7.79115 0)
(10.445 10.1383 0)
(10.0735 13.1529 0)
(8.02202 16.3215 0)
(3.6837 18.9829 0)
(4.89891 0.0139333 0)
(5.10973 0.014141 0)
(4.90872 0.0146118 0)
(5.11779 0.0152482 0)
(4.92024 0.0162216 0)
(5.12588 0.0173274 0)
(4.93404 0.0188695 0)
(5.13477 0.0205157 0)
(4.95074 0.0227321 0)
(5.14531 0.0250255 0)
(4.97106 0.0280695 0)
(5.15859 0.0311608 0)
(4.99589 0.0352458 0)
(5.1759 0.0393417 0)
(5.0264 0.0447595 0)
(5.1989 0.0501403 0)
(5.06406 0.0572873 0)
(5.22965 0.0643321 0)
(5.11085 0.0737476 0)
(5.27079 0.0829716 0)
(5.1694 0.0953937 0)
(5.32572 0.107504 0)
(5.24321 0.123953 0)
(5.39888 0.139932 0)
(5.337 0.161842 0)
(5.49615 0.183084 0)
(5.45714 0.212503 0)
(5.62541 0.241027 0)
(5.61237 0.28095 0)
(5.79739 0.319764 0)
(5.81476 0.374697 0)
(6.02694 0.428416 0)
(6.0813 0.505383 0)
(6.33504 0.581313 0)
(6.4363 0.691781 0)
(6.75187 0.801869 0)
(6.9153 0.96566 0)
(7.32187 1.13007 0)
(7.57132 1.38393 0)
(8.11177 1.63785 0)
(8.53772 1.8907 0)
(8.79384 2.54715 0)
(9.43239 3.22066 0)
(10.1727 4.13515 0)
(11.0164 5.40445 0)
(12.4076 7.15033 0)
(13.3615 9.86825 0)
(13.6867 13.8915 0)
(12.3471 19.6643 0)
(7.48415 27.4515 0)
(4.89897 0.00945406 0)
(5.11007 0.00959548 0)
(4.90917 0.00991445 0)
(5.11854 0.0103477 0)
(4.92111 0.0110073 0)
(5.1271 0.0117603 0)
(4.93538 0.0128053 0)
(5.13653 0.0139265 0)
(4.95262 0.0154288 0)
(5.14773 0.0169911 0)
(4.9736 0.0190549 0)
(5.1618 0.0211611 0)
(4.99925 0.0239319 0)
(5.18013 0.0267231 0)
(5.03079 0.0304001 0)
(5.20441 0.0340674 0)
(5.0698 0.0389218 0)
(5.2368 0.0437235 0)
(5.11835 0.0501255 0)
(5.28009 0.0564127 0)
(5.17924 0.0648703 0)
(5.33785 0.0731247 0)
(5.2562 0.084344 0)
(5.41482 0.0952362 0)
(5.35431 0.110213 0)
(5.51729 0.124696 0)
(5.48048 0.144864 0)
(5.65383 0.164323 0)
(5.6443 0.191795 0)
(5.83625 0.218307 0)
(5.85924 0.256297 0)
(6.0812 0.293078 0)
(6.14462 0.346661 0)
(6.41283 0.398873 0)
(6.52885 0.476456 0)
(6.86713 0.552716 0)
(7.055 0.669053 0)
(7.49983 0.784316 0)
(7.7906 0.967116 0)
(8.40134 1.14852 0)
(8.84205 1.29434 0)
(9.29461 1.88696 0)
(10.1069 2.42658 0)
(11.1065 3.18025 0)
(12.3477 4.26815 0)
(14.5735 5.68703 0)
(16.7916 8.305 0)
(19.3834 12.6847 0)
(21.6757 21.7287 0)
(18.5712 39.3975 0)
(4.89905 0.0047936 0)
(5.11019 0.00486511 0)
(4.90946 0.0050272 0)
(5.11886 0.0052463 0)
(4.92163 0.0055815 0)
(5.12765 0.00596224 0)
(4.93617 0.00649339 0)
(5.13734 0.00706033 0)
(4.95375 0.00782391 0)
(5.14888 0.008614 0)
(4.97516 0.00966301 0)
(5.16338 0.0107285 0)
(5.00136 0.0121368 0)
(5.18226 0.0135494 0)
(5.03362 0.0154183 0)
(5.20728 0.0172756 0)
(5.07355 0.0197429 0)
(5.24066 0.0221771 0)
(5.12333 0.0254306 0)
(5.28528 0.0286223 0)
(5.18584 0.0329203 0)
(5.34486 0.0371182 0)
(5.26496 0.0428195 0)
(5.42431 0.0483718 0)
(5.36597 0.0559827 0)
(5.53022 0.0633866 0)
(5.4961 0.0736371 0)
(5.67155 0.0836199 0)
(5.66545 0.0975885 0)
(5.86081 0.111244 0)
(5.88828 0.130579 0)
(6.11579 0.149606 0)
(6.18532 0.176929 0)
(6.46265 0.204057 0)
(6.58756 0.243771 0)
(6.94124 0.283545 0)
(7.143 0.343507 0)
(7.61493 0.403836 0)
(7.9294 0.49902 0)
(8.59018 0.59448 0)
(9.01524 0.608779 0)
(9.65548 1.08561 0)
(10.6015 1.42177 0)
(11.8091 1.89874 0)
(13.3867 2.60391 0)
(16.3453 3.3149 0)
(19.8406 5.10114 0)
(25.0797 8.31563 0)
(31.974 13.8076 0)
(48.4359 25.2145 0)
(4.89904 2.97123e-10 0)
(5.1103 2.96813e-10 0)
(4.90955 2.95984e-10 0)
(5.11909 2.93902e-10 0)
(4.92182 2.91367e-10 0)
(5.12801 2.88731e-10 0)
(4.93647 2.8574e-10 0)
(5.13785 2.81957e-10 0)
(4.95416 2.7883e-10 0)
(5.14955 2.75379e-10 0)
(4.97569 2.72053e-10 0)
(5.16426 2.67784e-10 0)
(5.00205 2.65456e-10 0)
(5.18339 2.6167e-10 0)
(5.03449 2.58905e-10 0)
(5.2087 2.56327e-10 0)
(5.07466 2.53582e-10 0)
(5.24245 2.51469e-10 0)
(5.12474 2.48825e-10 0)
(5.28752 2.46645e-10 0)
(5.18767 2.44828e-10 0)
(5.34767 2.43299e-10 0)
(5.26736 2.41707e-10 0)
(5.42788 2.40813e-10 0)
(5.3692 2.3992e-10 0)
(5.53481 2.39347e-10 0)
(5.50055 2.3734e-10 0)
(5.6776 2.38522e-10 0)
(5.67171 2.37421e-10 0)
(5.86898 2.38388e-10 0)
(5.8973 2.38376e-10 0)
(6.12719 2.39557e-10 0)
(6.19864 2.40464e-10 0)
(6.47915 2.41747e-10 0)
(6.60772 2.44987e-10 0)
(6.96608 2.43739e-10 0)
(7.17436 2.50621e-10 0)
(7.65413 2.46097e-10 0)
(7.97979 2.59389e-10 0)
(8.65536 2.44133e-10 0)
(9.03693 -0.121245 0)
(9.83262 0.182728 0)
(10.8422 0.262407 0)
(12.1526 0.371903 0)
(13.9025 0.531273 0)
(17.172 0.266489 0)
(21.2943 0.543746 0)
(27.8643 0.99051 0)
(37.0204 0.278154 0)
(55.0466 0.206261 0)
(4.89905 -0.00479359 0)
(5.11019 -0.0048651 0)
(4.90946 -0.0050272 0)
(5.11886 -0.0052463 0)
(4.92163 -0.0055815 0)
(5.12765 -0.00596224 0)
(4.93617 -0.00649339 0)
(5.13734 -0.00706033 0)
(4.95375 -0.00782391 0)
(5.14888 -0.008614 0)
(4.97516 -0.009663 0)
(5.16338 -0.0107285 0)
(5.00136 -0.0121368 0)
(5.18226 -0.0135494 0)
(5.03362 -0.0154183 0)
(5.20728 -0.0172756 0)
(5.07355 -0.0197429 0)
(5.24066 -0.0221771 0)
(5.12333 -0.0254306 0)
(5.28528 -0.0286223 0)
(5.18584 -0.0329203 0)
(5.34486 -0.0371182 0)
(5.26496 -0.0428195 0)
(5.42431 -0.0483718 0)
(5.36597 -0.0559827 0)
(5.53022 -0.0633866 0)
(5.4961 -0.0736371 0)
(5.67155 -0.0836199 0)
(5.66545 -0.0975885 0)
(5.86081 -0.111244 0)
(5.88828 -0.130579 0)
(6.11579 -0.149606 0)
(6.18532 -0.176929 0)
(6.46265 -0.204057 0)
(6.58756 -0.243771 0)
(6.94124 -0.283545 0)
(7.143 -0.343507 0)
(7.61493 -0.403836 0)
(7.9294 -0.49902 0)
(8.59018 -0.59448 0)
(8.89897 -0.839958 0)
(9.79378 -0.738781 0)
(10.7791 -0.927046 0)
(12.053 -1.20486 0)
(13.743 -1.62858 0)
(16.7301 -2.84104 0)
(20.4584 -4.16938 0)
(26.2168 -6.70157 0)
(33.9158 -13.2568 0)
(52.0579 -24.7514 0)
(4.89897 -0.00945406 0)
(5.11007 -0.00959548 0)
(4.90917 -0.00991444 0)
(5.11854 -0.0103477 0)
(4.92111 -0.0110073 0)
(5.1271 -0.0117603 0)
(4.93538 -0.0128053 0)
(5.13653 -0.0139265 0)
(4.95262 -0.0154288 0)
(5.14773 -0.0169911 0)
(4.9736 -0.0190549 0)
(5.1618 -0.0211611 0)
(4.99925 -0.0239319 0)
(5.18013 -0.0267231 0)
(5.03079 -0.0304001 0)
(5.20441 -0.0340674 0)
(5.0698 -0.0389218 0)
(5.2368 -0.0437235 0)
(5.11835 -0.0501255 0)
(5.28009 -0.0564127 0)
(5.17924 -0.0648703 0)
(5.33785 -0.0731247 0)
(5.2562 -0.084344 0)
(5.41482 -0.0952362 0)
(5.35431 -0.110213 0)
(5.51729 -0.124696 0)
(5.48048 -0.144864 0)
(5.65383 -0.164323 0)
(5.6443 -0.191795 0)
(5.83625 -0.218307 0)