/*--------------------------------*- C++ -*----------------------------------*\
| =========                 |                                                 |
| \\      /  F ield         | foam-extend: Open Source CFD                    |
|  \\    /   O peration     | Version:     4.0                                |
|   \\  /    A nd           | Web:         http://www.foam-extend.org         |
|    \\/     M anipulation  |                                                 |
\*---------------------------------------------------------------------------*/
FoamFile
{
    version     2.0;
    format      ascii;
    class       volScalarField;
    location    "2.00098e-05";
    object      k;
}
// * * * * * * * * * * * * * * * * * * * * * * * * * * * * * * * * * * * * * //

dimensions      [0 2 -2 0 0 0 0];

internalField   nonuniform List<scalar> 
28770
(
0.0116286
0.0087385
0.0122618
0.0143859
0.0151614
0.0153754
0.0154204
0.0154248
0.0154217
0.0154161
0.0154092
0.0154014
0.0153923
0.0153821
0.0153704
0.0153572
0.0153421
0.0153253
0.0153061
0.0152848
0.0152605
0.0152337
0.0152033
0.0151699
0.015132
0.0150908
0.0150441
0.0149938
0.014937
0.0148763
0.0148084
0.0147365
0.0146566
0.0145732
0.0144817
0.0143875
0.0142858
0.0141829
0.0140743
0.0139667
0.0138564
0.0137495
0.0136395
0.0135084
0.0132486
0.0124993
0.0104276
0.00629952
0.00173759
0.000123526
0.113548
0.236999
0.348544
0.407808
0.42973
0.435819
0.437099
0.437223
0.437132
0.436967
0.436767
0.436538
0.436275
0.435977
0.435635
0.435251
0.434812
0.434322
0.433762
0.433141
0.432433
0.431654
0.430766
0.429794
0.428689
0.42749
0.42613
0.424666
0.423011
0.421248
0.419266
0.417179
0.414852
0.412432
0.409765
0.407033
0.404071
0.401088
0.397928
0.39481
0.391605
0.388506
0.385309
0.381504
0.37394
0.352151
0.292097
0.173235
0.0442093
0.00178514
0.441022
1.27815
1.91531
2.24477
2.36715
2.40156
2.409
2.4099
2.40956
2.40885
2.40797
2.40697
2.40582
2.40452
2.40302
2.40134
2.39941
2.39726
2.39481
2.39209
2.38898
2.38555
2.38165
2.37738
2.37252
2.36723
2.36123
2.35476
2.34745
2.33963
2.33084
2.32156
2.3112
2.3004
2.28847
2.27623
2.26292
2.24948
2.2352
2.22107
2.20651
2.19233
2.17738
2.15793
2.11361
1.97721
1.60084
0.886019
0.194408
0.00716909
0.831213
2.72196
4.20385
4.97702
5.26733
5.35058
5.36936
5.37232
5.3721
5.37122
5.37005
5.36871
5.36716
5.36541
5.36341
5.36116
5.35858
5.3557
5.35242
5.34877
5.3446
5.34
5.33477
5.32902
5.32248
5.31536
5.30727
5.29853
5.28863
5.27805
5.26612
5.25351
5.23937
5.22463
5.20828
5.19147
5.17312
5.15456
5.13476
5.11511
5.09474
5.07463
5.05182
5.01425
4.90494
4.54162
3.56016
1.83391
0.369262
0.0132998
1.08644
3.65738
5.74948
6.87491
7.30897
7.43724
7.46754
7.47317
7.47363
7.4732
7.47248
7.47163
7.47068
7.46959
7.46835
7.46695
7.46537
7.46359
7.46158
7.45933
7.45679
7.45396
7.45077
7.44725
7.44328
7.43895
7.43406
7.42878
7.42284
7.4165
7.40938
7.40189
7.39354
7.38488
7.37533
7.36559
7.35501
7.34442
7.33319
7.32216
7.31072
7.299
7.28232
7.23918
7.07753
6.51216
5.00681
2.47811
0.480951
0.0171792
1.21515
4.03473
6.37321
7.66782
8.18072
8.33659
8.3747
8.38234
8.38347
8.38341
8.38316
8.38281
8.38244
8.38201
8.38154
8.381
8.38041
8.37973
8.379
8.37816
8.37725
8.37622
8.37511
8.37387
8.37253
8.37107
8.36949
8.36781
8.366
8.36412
8.36213
8.36013
8.35805
8.35605
8.35404
8.35222
8.3505
8.34909
8.34792
8.34713
8.34656
8.34533
8.33775
8.29646
8.11098
7.4457
5.68034
2.7669
0.530186
0.0188856
1.26523
4.15287
6.55684
7.90838
8.45329
8.62127
8.66305
8.67167
8.67313
8.67326
8.67321
8.6731
8.673
8.67287
8.67276
8.67261
8.67248
8.67231
8.67218
8.67199
8.67184
8.67165
8.67152
8.67135
8.67125
8.67115
8.67115
8.67119
8.67137
8.67167
8.67218
8.6729
8.67394
8.67532
8.67716
8.67947
8.68242
8.68594
8.69028
8.69519
8.70083
8.7058
8.70361
8.66474
8.47171
7.77194
5.91709
2.87082
0.548621
0.0195304
1.27992
4.18516
6.6008
7.96666
8.52224
8.69441
8.73746
8.74642
8.748
8.7482
8.74821
8.74818
8.74817
8.74814
8.74814
8.74812
8.74815
8.74815
8.7482
8.74824
8.74834
8.74843
8.74862
8.74881
8.74913
8.74949
8.75003
8.75066
8.75154
8.7526
8.754
8.75571
8.75789
8.76054
8.76386
8.7678
8.77265
8.77824
8.78499
8.79247
8.80105
8.80911
8.81003
8.77326
8.57991
7.87343
5.99826
2.91349
0.557414
0.0198471
1.28339
4.19308
6.6095
7.97794
8.53663
8.71014
8.7536
8.76266
8.76427
8.76449
8.76452
8.7645
8.76452
8.76451
8.76455
8.76457
8.76463
8.76467
8.76478
8.76487
8.76504
8.76522
8.76549
8.76579
8.76622
8.76672
8.7674
8.76823
8.76931
8.77063
8.77231
8.77438
8.77697
8.78013
8.78404
8.78872
8.79444
8.80108
8.80912
8.81804
8.8285
8.8385
8.84178
8.8072
8.61669
7.91364
6.03998
2.94264
0.564407
0.0201053
1.28416
4.1951
6.61067
7.9792
8.53892
8.71296
8.75658
8.76569
8.76731
8.76753
8.76756
8.76755
8.76756
8.76757
8.76761
8.76764
8.7677
8.76777
8.76788
8.76799
8.76817
8.76837
8.76866
8.76899
8.76945
8.77
8.77073
8.77162
8.77277
8.7742
8.776
8.77825
8.78105
8.7845
8.78877
8.79393
8.80028
8.80769
8.81679
8.8269
8.83903
8.85108
8.85686
8.82524
8.63944
7.94409
6.07895
2.97412
0.572431
0.0204043
1.28434
4.19574
6.61051
7.97878
8.53898
8.71333
8.75704
8.76618
8.7678
8.76802
8.76805
8.76805
8.76806
8.76807
8.76811
8.76814
8.76821
8.76828
8.76839
8.76851
8.76869
8.7689
8.76919
8.76954
8.77001
8.77059
8.77134
8.77228
8.77347
8.77499
8.77688
8.77929
8.78225
8.78601
8.7906
8.79632
8.80328
8.81163
8.82189
8.8334
8.84787
8.86222
8.87104
8.84286
8.66295
7.97742
6.1238
3.01157
0.582134
0.0207669
1.2844
4.19599
6.61019
7.97822
8.53872
8.7133
8.75709
8.76625
8.76787
8.7681
8.76812
8.76812
8.76813
8.76815
8.76818
8.76822
8.76828
8.76835
8.76846
8.76859
8.76877
8.76899
8.76928
8.76965
8.77012
8.77072
8.77149
8.77247
8.77371
8.77531
8.7773
8.77986
8.78302
8.78708
8.79205
8.79835
8.80603
8.81541
8.82703
8.84007
8.85707
8.87467
8.8874
8.8642
8.69233
8.01977
6.1809
3.05947
0.594628
0.0212345
1.28441
4.19608
6.60991
7.97773
8.53845
8.71322
8.75708
8.76625
8.76787
8.76811
8.76813
8.76813
8.76814
8.76816
8.76819
8.76823
8.76829
8.76837
8.76847
8.76861
8.76879
8.76901
8.76931
8.76969
8.77017
8.77079
8.77159
8.77261
8.7739
8.77558
8.77767
8.78041
8.78377
8.7882
8.79357
8.80063
8.80907
8.81994
8.83298
8.8481
8.86988
8.89133
8.9088
8.8919
8.73035
8.07481
6.25559
3.12278
0.611319
0.02186
1.28439
4.19607
6.6098
7.97724
8.53814
8.71315
8.75706
8.76625
8.76788
8.76811
8.76813
8.76814
8.76814
8.76816
8.76819
8.76823
8.76829
8.76838
8.76848
8.76862
8.7688
8.76903
8.76933
8.76972
8.77021
8.77086
8.77168
8.77274
8.77409
8.77586
8.77806
8.78098
8.7846
8.78941
8.79528
8.80317
8.81265
8.8253
8.84035
8.85832
8.88368
8.91041
8.93451
8.92798
8.78331
8.15584
6.36819
3.21926
0.637134
0.0227937
1.28435
4.19602
6.60991
7.9767
8.53779
8.71307
8.75705
8.76626
8.76788
8.76812
8.76814
8.76814
8.76815
8.76817
8.76819
8.76824
8.7683
8.76839
8.76849
8.76864
8.76881
8.76906
8.76935
8.76976
8.77026
8.77093
8.77177
8.77289
8.77429
8.77614
8.77848
8.78159
8.78546
8.79069
8.79711
8.806
8.81649
8.83191
8.84758
8.87197
8.90439
8.93798
8.96893
8.97999
8.86262
8.28748
6.56041
3.39149
0.686662
0.0234043
1.2843
4.19595
6.61013
7.97618
8.53741
8.71302
8.75705
8.76628
8.7679
8.76815
8.76816
8.76817
8.76817
8.7682
8.76822
8.76827
8.76832
8.76842
8.76851
8.76867
8.76884
8.7691
8.7694
8.76982
8.77033
8.77102
8.77189
8.77305
8.77451
8.77646
8.77893
8.78223
8.78642
8.79206
8.79915
8.80894
8.82092
8.83831
8.85694
8.88624
8.91895
8.94683
8.98943
9.03067
8.99569
8.63984
7.31541
4.42775
1.31131
0.0718737
1.28424
4.19588
6.6104
7.97573
8.53708
8.713
8.75711
8.76635
8.76797
8.76822
8.76823
8.76824
8.76824
8.76827
8.76829
8.76835
8.7684
8.76849
8.76859
8.76875
8.76892
8.76918
8.76948
8.76992
8.77044
8.77116
8.77205
8.77325
8.77477
8.77681
8.77943
8.7829
8.7874
8.7934
8.80124
8.81171
8.82551
8.8437
8.86801
8.89847
8.93832
8.97755
9.0338
9.0984
9.11177
8.85069
7.67229
4.85246
1.50347
0.0761139
1.28419
4.19583
6.6107
7.97541
8.53687
8.71308
8.75727
8.76654
8.76816
8.76841
8.76842
8.76844
8.76843
8.76846
8.76848
8.76854
8.76858
8.76869
8.76878
8.76895
8.76912
8.76939
8.76969
8.77013
8.77066
8.7714
8.77232
8.77357
8.77516
8.77728
8.78003
8.78368
8.78848
8.79488
8.80344
8.81485
8.83031
8.85056
8.87881
8.91389
8.95995
9.01237
9.08962
9.18411
9.25285
9.08707
8.05269
5.27858
1.70068
0.0882881
1.28416
4.19584
6.61106
7.97529
8.53682
8.71332
8.75763
8.76693
8.76856
8.76882
8.76882
8.76884
8.76883
8.76887
8.76888
8.76894
8.76899
8.76909
8.76918
8.76935
8.76952
8.7698
8.7701
8.77056
8.7711
8.77186
8.7728
8.77409
8.77573
8.77793
8.78078
8.78455
8.7896
8.79635
8.80567
8.81803
8.83542
8.8581
8.89094
8.9332
8.98617
9.05184
9.15512
9.28992
9.42898
9.38032
8.34504
5.41446
1.66462
0.0626848
1.28415
4.19592
6.61152
7.97543
8.53695
8.71374
8.75822
8.76758
8.76923
8.76949
8.76949
8.76951
8.7695
8.76954
8.76955
8.76961
8.76965
8.76976
8.76985
8.77003
8.77019
8.77048
8.77079
8.77125
8.7718
8.77258
8.77355
8.77487
8.77656
8.7788
8.78169
8.78552
8.79073
8.79785
8.80784
8.82135
8.84049
8.86618
8.90351
8.95406
9.01587
9.09727
9.22988
9.40949
9.61546
9.71435
8.93879
6.14234
2.05288
0.0832497
1.28416
4.19607
6.61207
7.97582
8.5372
8.71428
8.75897
8.76842
8.77008
8.77035
8.77036
8.77038
8.77037
8.77041
8.77041
8.77048
8.77052
8.77063
8.77072
8.7709
8.77106
8.77136
8.77167
8.77215
8.7727
8.7735
8.77448
8.77584
8.77753
8.77976
8.78261
8.78642
8.79177
8.79924
8.80993
8.82456
8.84554
8.87431
8.91643
8.97585
9.04709
9.14791
9.31409
9.54367
9.80935
10.0515
9.61638
7.11019
2.60765
0.113135
1.28418
4.19624
6.61264
7.97631
8.5375
8.71481
8.75975
8.76929
8.77098
8.77125
8.77126
8.77128
8.77127
8.77131
8.77131
8.77138
8.77142
8.77154
8.77162
8.77181
8.77197
8.77227
8.77258
8.77307
8.77364
8.77445
8.77544
8.7768
8.77847
8.78062
8.78337
8.78718
8.79265
8.80049
8.81176
8.82754
8.85012
8.88198
8.92865
8.99682
9.07807
9.20125
9.4038
9.67951
9.99359
10.3764
10.316
8.42244
3.54987
0.174146
1.2842
4.19641
6.61315
7.9768
8.53776
8.71528
8.76043
8.77006
8.77177
8.77204
8.77205
8.77207
8.77206
8.77211
8.77211
8.77218
8.77222
8.77234
8.77242
8.77261
8.77278
8.77308
8.7734
8.7739
8.77446
8.77529
8.77627
8.7776
8.77918
8.78123
8.7839
8.78774
8.79335
8.80154
8.81335
8.8301
8.85416
8.88873
8.9396
9.0157
9.10584
9.2531
9.4906
9.80056
10.1628
10.6749
11.003
10.148
4.88113
0.566412
1.28422
4.19655
6.61356
7.97719
8.53797
8.71564
8.76097
8.77066
8.77238
8.77267
8.77267
8.7727
8.77268
8.77273
8.77273
8.77281
8.77284
8.77296
8.77305
8.77324
8.77341
8.77372
8.77403
8.77454
8.7751
8.77593
8.77689
8.77815
8.77962
8.78159
8.78422
8.78812
8.79385
8.80233
8.81452
8.83208
8.85722
8.89401
8.94815
9.03071
9.12817
9.29808
9.56469
9.89997
10.3054
10.922
11.5793
11.8811
8.55189
1.88567
1.28424
4.19665
6.61385
7.97748
8.5381
8.71588
8.76133
8.77106
8.7728
8.77309
8.7731
8.77312
8.77311
8.77315
8.77316
8.77323
8.77327
8.77339
8.77347
8.77367
8.77383
8.77415
8.77446
8.77497
8.77554
8.77635
8.77726
8.77846
8.77986
8.78179
8.78442
8.78837
8.79419
8.80285
8.81531
8.83337
8.85926
8.89746
8.95373
9.04055
9.14217
9.33074
9.61712
9.9701
10.407
11.091
11.9479
13.0761
13.9653
10.6034
1.28425
4.1967
6.61399
7.97762
8.53814
8.71595
8.76146
8.77122
8.77297
8.77325
8.77326
8.77329
8.77327
8.77332
8.77332
8.7734
8.77343
8.77355
8.77364
8.77383
8.774
8.77432
8.77463
8.77514
8.7757
8.77651
8.77739
8.77856
8.77994
8.78186
8.78449
8.78845
8.79429
8.80302
8.81555
8.83381
8.85991
8.89865
8.9556
9.04399
9.14594
9.34614
9.64015
10.0024
10.4544
11.1601
12.0844
13.4594
15.3384
17.4716
1.28424
4.19665
6.61385
7.97748
8.5381
8.71588
8.76133
8.77106
8.7728
8.77309
8.7731
8.77312
8.77311
8.77315
8.77316
8.77323
8.77327
8.77339
8.77347
8.77367
8.77383
8.77415
8.77446
8.77497
8.77554
8.77635
8.77726
8.77846
8.77987
8.7818
8.78443
8.78837
8.79419
8.80285
8.81531
8.83337
8.85926
8.89746
8.95373
9.04055
9.13828
9.34108
9.63252
9.9917
10.4386
11.1193
12.0036
13.2403
14.3122
12.1858
1.28422
4.19655
6.61356
7.97719
8.53797
8.71564
8.76097
8.77066
8.77238
8.77267
8.77267
8.7727
8.77268
8.77273
8.77273
8.77281
8.77284
8.77296
8.77305
8.77324
8.77341
8.77372
8.77403
8.77454
8.7751
8.77593
8.77689
8.77816
8.77964
8.7816
8.78423
8.78812
8.79385
8.80233
8.81451
8.83208
8.85722
8.89401
8.94815
9.03071
9.12083
9.31665
9.59485
9.93947
10.3624
10.9733
11.693
12.252
10.4397
2.32111
1.2842
4.19641
6.61315
7.9768
8.53776
8.71528
8.76043
8.77006
8.77177
8.77204
8.77205
8.77207
8.77206
8.7721
8.77211
8.77218
8.77222
8.77234
8.77242
8.77261
8.77278
8.77308
8.7734
8.7739
8.77446
8.77529
8.77628
8.77761
8.77919
8.78123
8.7839
8.78774
8.79335
8.80154
8.81335
8.8301
8.85416
8.88873
8.9396
9.0157
9.09587
9.27715
9.53049
9.85387
10.2388
10.743
11.1629
10.5992
6.4053
0.63915
1.28418
4.19624
6.61264
7.97631
8.5375
8.71481
8.75975
8.76929
8.77098
8.77125
8.77126
8.77128
8.77127
8.77131
8.77131
8.77138
8.77142
8.77154
8.77162
8.77181
8.77197
8.77227
8.77258
8.77307
8.77364
8.77445
8.77545
8.7768
8.77847
8.78062
8.78336
8.78718
8.79264
8.80049
8.81176
8.82754
8.85012
8.88198
8.92865
8.99682
9.06623
9.2279
9.44872
9.74251
10.0812
10.4543
10.4903
8.82687
3.89459
0.202131
1.28416
4.19607
6.61207
7.97582
8.5372
8.71428
8.75897
8.76842
8.77008
8.77035
8.77036
8.77038
8.77037
8.77041
8.77041
8.77048
8.77052
8.77063
8.77072
8.7709
8.77106
8.77136
8.77167
8.77215
8.7727
8.7735
8.77448
8.77584
8.77753
8.77976
8.78261
8.78642
8.79177
8.79924
8.80993
8.82456
8.84554
8.87431
8.91643
8.97585
9.03452
9.17427
9.35879
9.6134
9.90344
10.135
9.79057
7.40095
2.79113
0.123758
1.28415
4.19592
6.61152
7.97543
8.53695
8.71374
8.75822
8.76758
8.76923
8.76949
8.76949
8.76951
8.7695
8.76954
8.76955
8.76961
8.76965
8.76976
8.76985
8.77003
8.77019
8.77048
8.77079
8.77125
8.7718
8.77258
8.77355
8.77487
8.77656
8.7788
8.78169
8.78552
8.79073
8.79785
8.80784
8.82135
8.84049
8.86618
8.90351
8.95406
9.0035
9.12145
9.27051
9.47524
9.71407
9.80036
9.10325
6.35781
2.16949
0.089272
1.28416
4.19584
6.61106
7.97529
8.53682
8.71332
8.75763
8.76693
8.76856
8.76882
8.76882
8.76884
8.76883
8.76887
8.76888
8.76894
8.76899
8.76909
8.76918
8.76935
8.76952
8.7698
8.7701
8.77056
8.7711
8.77186
8.7728
8.77409
8.77573
8.77793
8.78078
8.78455
8.7896
8.79635
8.80567
8.81803
8.83542
8.8581
8.89094
8.9332
8.97494
9.07274
9.19027
9.34652
9.51835
9.46839
8.48409
5.57624
1.75158
0.0676898
1.28419
4.19583
6.6107
7.97541
8.53687
8.71308
8.75727
8.76654
8.76816
8.76841
8.76842
8.76844
8.76843
8.76846
8.76848
8.76854
8.76858
8.76869
8.76878
8.76895
8.76912
8.76939
8.76969
8.77013
8.77066
8.7714
8.77232
8.77357
8.77516
8.77728
8.78003
8.78368
8.78848
8.79488
8.80344
8.81485
8.83031
8.85056
8.87881
8.91389
8.95105
9.02998
9.12004
9.23357
9.33683
9.22051
8.26529
5.5297
1.83238
0.0975125
1.28424
4.19588
6.6104
7.97573
8.53708
8.713
8.75711
8.76635
8.76797
8.76822
8.76823
8.76824
8.76824
8.76827
8.76829
8.76835
8.7684
8.76849
8.76859
8.76875
8.76892
8.76918
8.76948
8.76992
8.77044
8.77116
8.77205
8.77325
8.77477
8.77681
8.77943
8.7829
8.7874
8.7934
8.80124
8.81171
8.82551
8.8437
8.86801
8.89847
8.9316
8.99304
9.05986
9.13871
9.17934
8.96494
7.85635
5.05865
1.59648
0.0817149
1.2843
4.19595
6.61013
7.97618
8.53741
8.71302
8.75705
8.76628
8.7679
8.76815
8.76816
8.76817
8.76817
8.7682
8.76822
8.76827
8.76832
8.76842
8.76851
8.76867
8.76884
8.7691
8.7694
8.76982
8.77033
8.77102
8.77189
8.77305
8.77451
8.77646
8.77893
8.78223
8.78642
8.79206
8.79915
8.80894
8.82092
8.83831
8.85694
8.88624
8.91108
8.96012
9.00978
9.06217
9.05172
8.7433
7.49584
4.65321
1.41594
0.0719465
1.28435
4.19602
6.60991
7.9767
8.53779
8.71307
8.75705
8.76626
8.76788
8.76812
8.76814
8.76814
8.76815
8.76817
8.76819
8.76824
8.7683
8.76839
8.76849
8.76864
8.76881
8.76906
8.76935
8.76976
8.77026
8.77093
8.77177
8.77289
8.77429
8.77614
8.77848
8.78159
8.78546
8.79069
8.79711
8.806
8.81649
8.83191
8.84758
8.87197
8.90439
8.93798
8.96893
8.97999
8.86262
8.28748
6.56041
3.39149
0.68666
0.0234043
1.28439
4.19607
6.6098
7.97724
8.53814
8.71315
8.75706
8.76625
8.76788
8.76811
8.76813
8.76814
8.76814
8.76816
8.76819
8.76823
8.76829
8.76838
8.76848
8.76862
8.7688
8.76903
8.76933
8.76972
8.77021
8.77086
8.77168
8.77274
8.77409
8.77586
8.77806
8.78098
8.7846
8.78941
8.79528
8.80317
8.81265
8.8253
8.84035
8.85832
8.88368
8.91041
8.93451
8.92798
8.78331
8.15584
6.36819
3.21926
0.637134
0.0227936
1.28441
4.19608
6.60991
7.97773
8.53845
8.71322
8.75708
8.76625
8.76787
8.76811
8.76813
8.76813
8.76814
8.76816
8.76819
8.76823
8.76829
8.76837
8.76847
8.76861
8.76879
8.76901
8.76931
8.76969
8.77017
8.77079
8.77159
8.77261
8.7739
8.77558
8.77767
8.78041
8.78377
8.7882
8.79357
8.80063
8.80907
8.81994
8.83298
8.8481
8.86988
8.89133
8.9088
8.8919
8.73035
8.07481
6.25559
3.12278
0.611318
0.0218599
1.2844
4.19599
6.61019
7.97822
8.53872
8.7133
8.75709
8.76625
8.76787
8.7681
8.76812
8.76812
8.76813
8.76815
8.76818
8.76822
8.76828
8.76835
8.76846
8.76859
8.76877
8.76899
8.76928
8.76965
8.77012
8.77072
8.77149
8.77247
8.77371
8.77531
8.7773
8.77986
8.78302
8.78708
8.79205
8.79835
8.80603
8.81541
8.82703
8.84007
8.85707
8.87467
8.8874
8.8642
8.69233
8.01978
6.1809
3.05947
0.594628
0.0212345
1.28434
4.19574
6.61051
7.97878
8.53898
8.71333
8.75704
8.76618
8.7678
8.76802
8.76805
8.76805
8.76806
8.76807
8.76811
8.76814
8.76821
8.76828
8.76839
8.76851
8.76869
8.7689
8.76919
8.76954
8.77001
8.77059
8.77134
8.77228
8.77347
8.77499
8.77688
8.77929
8.78225
8.78601
8.7906
8.79632
8.80328
8.81163
8.82189
8.8334
8.84787
8.86222
8.87104
8.84286
8.66295
7.97743
6.1238
3.01157
0.582134
0.0207669
1.28416
4.1951
6.61067
7.9792
8.53892
8.71296
8.75658
8.76569
8.76731
8.76753
8.76756
8.76755
8.76756
8.76757
8.76761
8.76764
8.7677
8.76777
8.76788
8.76799
8.76817
8.76837
8.76866
8.76899
8.76945
8.77
8.77073
8.77162
8.77277
8.7742
8.776
8.77825
8.78105
8.7845
8.78877
8.79393
8.80028
8.80769
8.81679
8.8269
8.83903
8.85108
8.85686
8.82524
8.63944
7.94409
6.07896
2.97412
0.572431
0.0204042
1.28339
4.19308
6.6095
7.97794
8.53663
8.71014
8.7536
8.76266
8.76427
8.76449
8.76452
8.7645
8.76452
8.76451
8.76455
8.76457
8.76463
8.76467
8.76478
8.76487
8.76504
8.76522
8.76549
8.76579
8.76622
8.76672
8.7674
8.76823
8.7693
8.77063
8.77231
8.77438
8.77697
8.78013
8.78404
8.78872
8.79444
8.80108
8.80912
8.81804
8.8285
8.8385
8.84178
8.8072
8.61669
7.91364
6.03999
2.94264
0.564407
0.0201053
1.27992
4.18516
6.6008
7.96666
8.52224
8.69441
8.73746
8.74642
8.748
8.7482
8.74821
8.74818
8.74817
8.74814
8.74814
8.74812
8.74815
8.74815
8.7482
8.74823
8.74834
8.74843
8.74862
8.74881
8.74913
8.74949
8.75003
8.75066
8.75154
8.7526
8.754
8.75571
8.75789
8.76054
8.76386
8.7678
8.77265
8.77824
8.78499
8.79247
8.80105
8.80911
8.81003
8.77326
8.57991
7.87343
5.99826
2.91349
0.557414
0.0198471
1.26523
4.15287
6.55684
7.90838
8.45329
8.62127
8.66305
8.67167
8.67313
8.67326
8.67321
8.6731
8.673
8.67287
8.67276
8.67261
8.67248
8.67231
8.67217
8.67199
8.67184
8.67165
8.67152
8.67135
8.67125
8.67115
8.67115
8.67119
8.67137
8.67167
8.67218
8.6729
8.67394
8.67532
8.67716
8.67947
8.68241
8.68594
8.69028
8.69519
8.70083
8.70579
8.70361
8.66474
8.47171
7.77194
5.91709
2.87082
0.548621
0.0195304
1.21515
4.03473
6.37321
7.66781
8.18072
8.33658
8.3747
8.38233
8.38347
8.38341
8.38316
8.38281
8.38244
8.38201
8.38154
8.381
8.38041
8.37973
8.379
8.37815
8.37725
8.37622
8.37511
8.37387
8.37253
8.37107
8.36949
8.36781
8.366
8.36412
8.36213
8.36013
8.35805
8.35605
8.35404
8.35222
8.3505
8.34909
8.34792
8.34713
8.34656
8.34533
8.33775
8.29646
8.11098
7.4457
5.68034
2.7669
0.530186
0.0188856
1.08644
3.65738
5.74948
6.8749
7.30897
7.43723
7.46754
7.47317
7.47363
7.47319
7.47248
7.47163
7.47067
7.46958
7.46835
7.46695
7.46537
7.46359
7.46158
7.45932
7.45678
7.45396
7.45077
7.44725
7.44328
7.43895
7.43406
7.42878
7.42284
7.41649
7.40938
7.40188
7.39353
7.38488
7.37532
7.36559
7.35501
7.34442
7.33319
7.32215
7.31072
7.299
7.28232
7.23918
7.07752
6.51216
5.00681
2.47811
0.48095
0.0171792
0.831212
2.72196
4.20385
4.97702
5.26733
5.35057
5.36936
5.37232
5.3721
5.37122
5.37005
5.3687
5.36716
5.36541
5.36341
5.36116
5.35858
5.3557
5.35242
5.34876
5.3446
5.34
5.33476
5.32902
5.32248
5.31535
5.30726
5.29853
5.28863
5.27805
5.26612
5.2535
5.23937
5.22462
5.20828
5.19147
5.17312
5.15456
5.13475
5.11511
5.09474
5.07463
5.05182
5.01425
4.90494
4.54162
3.56016
1.83391
0.369262
0.0132998
0.441021
1.27815
1.91531
2.24477
2.36715
2.40156
2.409
2.4099
2.40956
2.40885
2.40797
2.40697
2.40582
2.40452
2.40302
2.40134
2.39941
2.39726
2.39481
2.39209
2.38898
2.38555
2.38165
2.37738
2.37252
2.36723
2.36123
2.35476
2.34744
2.33963
2.33084
2.32156
2.3112
2.3004
2.28847
2.27622
2.26292
2.24948
2.2352
2.22107
2.2065
2.19233
2.17738
2.15792
2.11361
1.97721
1.60084
0.88602
0.194408
0.00716913
0.113548
0.236999
0.348544
0.407808
0.429731
0.435819
0.437099
0.437223
0.437132
0.436968
0.436767
0.436539
0.436275
0.435978
0.435636
0.435252
0.434812
0.434322
0.433762
0.433141
0.432434
0.431654
0.430766
0.429794
0.42869
0.42749
0.42613
0.424666
0.423011
0.421249
0.419267
0.41718
0.414852
0.412432
0.409765
0.407033
0.404071
0.401089
0.397928
0.39481
0.391605
0.388506
0.385309
0.381504
0.37394
0.352151
0.292097
0.173235
0.0442097
0.00178517
0.0116285
0.00873849
0.0122618
0.0143859
0.0151614
0.0153755
0.0154204
0.0154248
0.0154217
0.0154161
0.0154092
0.0154014
0.0153924
0.0153821
0.0153704
0.0153572
0.0153422
0.0153253
0.0153061
0.0152848
0.0152605
0.0152337
0.0152033
0.0151699
0.015132
0.0150908
0.0150442
0.0149938
0.014937
0.0148764
0.0148084
0.0147365
0.0146567
0.0145733
0.0144817
0.0143875
0.0142858
0.0141829
0.0140743
0.0139667
0.0138565
0.0137495
0.0136395
0.0135084
0.0132486
0.0124993
0.0104276
0.00629955
0.00173761
0.000123532
0.616568
0.154743
0.0865478
0.0501001
0.028326
0.0157173
0.00863165
0.00471463
0.00256677
0.00139396
0.000755247
0.000408186
0.000220138
0.000118818
6.499e-05
3.73481e-05
2.41076e-05
1.8495e-05
1.67031e-05
1.82687e-05
16.4
10.8366
6.2477
3.46503
1.90108
1.03899
0.566668
0.308566
0.167754
0.0910362
0.0492996
0.0266348
0.0143617
0.00775659
0.00425743
0.00247183
0.00162615
0.0012724
0.00115057
0.00113878
5.27364
2.24453
1.26895
0.724564
0.405318
0.223615
0.122469
0.0668061
0.0363466
0.0197306
0.0106863
0.00577374
0.00311332
0.00168148
0.000922886
0.000535743
0.000352401
0.000276031
0.000252292
0.000271054
0.000122133
0.00174137
0.00690362
0.0125443
0.0158797
0.0171474
0.0174441
0.0174253
0.0173291
0.0172097
0.0170869
0.016965
0.016846
0.016731
0.0166213
0.0165176
0.0164202
0.0163295
0.0162456
0.0161684
0.0160976
0.0160331
0.0159745
0.0159214
0.0158735
0.0158303
0.0157916
0.0157569
0.0157258
0.015698
0.0156732
0.0156511
0.0156315
0.015614
0.0155986
0.0155848
0.0155726
0.0155618
0.0155521
0.0155438
0.015536
0.0155298
0.0155233
0.0155188
0.0155131
0.0155104
0.0155049
0.0155038
0.0154984
0.0154988
0.0154933
0.015495
0.0154895
0.0154918
0.0154868
0.0154892
0.0154849
0.0154871
0.0154835
0.0154853
0.0154825
0.0154838
0.0154817
0.0154826
0.0154811
0.0154817
0.0154806
0.015481
0.0154802
0.0154805
0.0154799
0.01548
0.0154796
0.0154797
0.0154794
0.0154795
0.0154793
0.0154793
0.0154792
0.0154792
0.015479
0.015479
0.015479
0.015479
0.0154789
0.0154789
0.0154788
0.0154788
0.0154788
0.0154788
0.0154788
0.0154788
0.0154787
0.0154787
0.0154787
0.0154787
0.0154787
0.0154787
0.0154787
0.0154787
0.00174059
0.0437073
0.188335
0.349822
0.446365
0.483394
0.492258
0.491919
0.489345
0.486094
0.482742
0.479416
0.476166
0.473029
0.470033
0.467198
0.464539
0.462061
0.459768
0.457656
0.455722
0.453958
0.452356
0.450904
0.449594
0.448414
0.447354
0.446403
0.445554
0.444793
0.444116
0.443511
0.442975
0.442496
0.442073
0.441696
0.441362
0.441067
0.440802
0.440574
0.440361
0.44019
0.440013
0.43989
0.439734
0.439658
0.439509
0.439479
0.43933
0.439342
0.439193
0.439237
0.439088
0.439152
0.439014
0.439081
0.438961
0.439022
0.438923
0.438973
0.438896
0.438932
0.438874
0.4389
0.438858
0.438875
0.438845
0.438856
0.438834
0.43884
0.438825
0.438829
0.438818
0.43882
0.438813
0.438813
0.438808
0.438808
0.438805
0.438805
0.438802
0.438802
0.4388
0.438799
0.438798
0.438797
0.438796
0.438796
0.438795
0.438795
0.438794
0.438794
0.438793
0.438793
0.438793
0.438793
0.438792
0.438792
0.438792
0.438792
0.00639743
0.174936
0.878836
1.77485
2.34785
2.57819
2.63902
2.643
2.63342
2.61981
2.60556
2.59138
2.57752
2.56412
2.55131
2.53918
2.52779
2.51716
2.50731
2.49824
2.48993
2.48233
2.47543
2.46918
2.46353
2.45843
2.45386
2.44975
2.44608
2.4428
2.43987
2.43725
2.43493
2.43286
2.43103
2.4294
2.42795
2.42667
2.42553
2.42454
2.42362
2.42288
2.42212
2.42158
2.42092
2.42058
2.41995
2.4198
2.41917
2.41921
2.41858
2.41875
2.41812
2.41837
2.4178
2.41806
2.41757
2.41781
2.4174
2.41759
2.41728
2.41742
2.41718
2.41728
2.41711
2.41718
2.41705
2.41709
2.417
2.41703
2.41697
2.41698
2.41694
2.41694
2.41691
2.41691
2.41689
2.41689
2.41688
2.41687
2.41686
2.41686
2.41685
2.41685
2.41685
2.41684
2.41684
2.41684
2.41683
2.41683
2.41683
2.41683
2.41683
2.41683
2.41682
2.41682
2.41682
2.41682
2.41682
2.41682
0.0107322
0.299479
1.62377
3.54047
4.8893
5.47223
5.64435
5.67279
5.66462
5.64765
5.6288
5.60999
5.59164
5.57396
5.55708
5.54113
5.52618
5.51225
5.49937
5.48752
5.47667
5.46678
5.4578
5.44966
5.44232
5.43571
5.42977
5.42444
5.41968
5.41542
5.41163
5.40825
5.40524
5.40256
5.40019
5.39808
5.39621
5.39456
5.39309
5.3918
5.39062
5.38965
5.38868
5.38797
5.38712
5.38667
5.38587
5.38566
5.38486
5.38489
5.38409
5.38431
5.38351
5.38383
5.38309
5.38343
5.3828
5.3831
5.38259
5.38282
5.38243
5.3826
5.38231
5.38243
5.38221
5.38229
5.38213
5.38218
5.38207
5.3821
5.38202
5.38203
5.38198
5.38199
5.38195
5.38195
5.38192
5.38192
5.3819
5.3819
5.38189
5.38188
5.38187
5.38187
5.38186
5.38186
5.38185
5.38185
5.38185
5.38184
5.38184
5.38184
5.38184
5.38184
5.38183
5.38183
5.38183
5.38183
5.38183
5.38183
0.0129022
0.362293
2.02314
4.58586
6.48906
7.34653
7.61676
7.67522
7.67597
7.66476
7.65045
7.63618
7.62246
7.60942
7.59716
7.58573
7.57514
7.5654
7.5565
7.54839
7.54104
7.5344
7.52842
7.52304
7.51822
7.51391
7.51006
7.50662
7.50357
7.50084
7.49842
7.49627
7.49437
7.49268
7.49118
7.48986
7.48869
7.48765
7.48673
7.48592
7.48519
7.48458
7.48398
7.48353
7.48301
7.48272
7.48223
7.4821
7.4816
7.48162
7.48112
7.48126
7.48076
7.48096
7.48051
7.48072
7.48032
7.48051
7.48019
7.48034
7.4801
7.4802
7.48002
7.48009
7.47996
7.48001
7.47991
7.47994
7.47987
7.47989
7.47984
7.47985
7.47982
7.47982
7.4798
7.4798
7.47978
7.47978
7.47977
7.47977
7.47976
7.47976
7.47975
7.47975
7.47974
7.47974
7.47974
7.47974
7.47973
7.47973
7.47973
7.47973
7.47973
7.47973
7.47973
7.47973
7.47972
7.47972
7.47972
7.47972
0.0135775
0.381946
2.15596
4.96832
7.11161
8.09735
8.41814
8.49457
8.50221
8.4953
8.48501
8.47477
8.46519
8.45638
8.44834
8.44108
8.43456
8.42874
8.42357
8.419
8.41497
8.41143
8.40831
8.40557
8.40318
8.40107
8.39923
8.39761
8.3962
8.39495
8.39387
8.39291
8.39207
8.39133
8.39069
8.39012
8.38962
8.38918
8.3888
8.38846
8.38816
8.3879
8.38766
8.38747
8.38726
8.38714
8.38694
8.38688
8.38668
8.38669
8.38649
8.38655
8.38634
8.38643
8.38624
8.38633
8.38617
8.38624
8.38611
8.38617
8.38608
8.38612
8.38604
8.38607
8.38602
8.38604
8.386
8.38601
8.38598
8.38599
8.38597
8.38598
8.38596
8.38596
8.38595
8.38595
8.38595
8.38595
8.38594
8.38594
8.38594
8.38594
8.38594
8.38593
8.38593
8.38593
8.38593
8.38593
8.38593
8.38593
8.38593
8.38593
8.38593
8.38593
8.38593
8.38593
8.38593
8.38592
8.38592
8.38592
0.0136602
0.384376
2.17891
5.05642
7.2816
8.31931
8.66276
8.74729
8.75767
8.75203
8.74292
8.73394
8.72578
8.7185
8.71208
8.70647
8.70162
8.69744
8.69388
8.69085
8.68827
8.6861
8.68426
8.68272
8.68141
8.68031
8.67938
8.6786
8.67793
8.67737
8.67689
8.67648
8.67614
8.67584
8.67559
8.67537
8.67519
8.67502
8.67489
8.67477
8.67466
8.67457
8.67449
8.67443
8.67436
8.67432
8.67425
8.67424
8.67417
8.67417
8.67411
8.67413
8.67406
8.67409
8.67403
8.67406
8.674
8.67403
8.67399
8.67401
8.67398
8.67399
8.67397
8.67397
8.67396
8.67396
8.67395
8.67396
8.67395
8.67395
8.67394
8.67395
8.67394
8.67394
8.67394
8.67394
8.67394
8.67394
8.67394
8.67394
8.67393
8.67393
8.67393
8.67393
8.67393
8.67393
8.67393
8.67393
8.67393
8.67393
8.67393
8.67393
8.67393
8.67393
8.67393
8.67393
8.67393
8.67393
8.67393
8.67393
0.0135429
0.381023
2.16657
5.05367
7.30909
8.3723
8.72767
8.81568
8.82635
8.8203
8.81067
8.80135
8.79305
8.78579
8.77952
8.77417
8.76964
8.76584
8.76268
8.76006
8.7579
8.75613
8.75468
8.7535
8.75254
8.75176
8.75113
8.75061
8.7502
8.74985
8.74958
8.74935
8.74917
8.74902
8.74889
8.74879
8.74871
8.74864
8.74858
8.74853
8.74849
8.74846
8.74843
8.74841
8.74839
8.74837
8.74835
8.74835
8.74833
8.74833
8.74831
8.74832
8.7483
8.74831
8.74829
8.7483
8.74828
8.74829
8.74828
8.74828
8.74827
8.74828
8.74827
8.74827
8.74827
8.74827
8.74827
8.74827
8.74827
8.74827
8.74827
8.74827
8.74827
8.74827
8.74826
8.74826
8.74826
8.74826
8.74826
8.74826
8.74826
8.74826
8.74826
8.74826
8.74826
8.74826
8.74826
8.74826
8.74826
8.74826
8.74826
8.74826
8.74826
8.74826
8.74826
8.74826
8.74826
8.74826
8.74826
8.74826
0.0133528
0.375555
2.14225
5.02291
7.29914
8.38334
8.7481
8.83796
8.84779
8.84047
8.82948
8.81906
8.80992
8.80202
8.7953
8.78963
8.7849
8.78099
8.77777
8.77515
8.77302
8.77129
8.7699
8.76879
8.76789
8.76718
8.76661
8.76616
8.7658
8.76551
8.76528
8.7651
8.76496
8.76485
8.76476
8.76469
8.76463
8.76458
8.76455
8.76452
8.7645
8.76448
8.76447
8.76445
8.76444
8.76444
8.76443
8.76443
8.76442
8.76443
8.76442
8.76442
8.76441
8.76441
8.76441
8.76441
8.7644
8.7644
8.7644
8.7644
8.7644
8.7644
8.7644
8.7644
8.7644
8.7644
8.7644
8.7644
8.7644
8.7644
8.7644
8.7644
8.7644
8.7644
8.7644
8.7644
8.7644
8.7644
8.7644
8.7644
8.7644
8.7644
8.7644
8.7644
8.7644
8.7644
8.7644
8.7644
8.7644
8.7644
8.7644
8.7644
8.7644
8.7644
8.7644
8.7644
8.7644
8.7644
8.7644
8.7644
0.0131141
0.368698
2.11117
4.98086
7.27873
8.38651
8.76145
8.85276
8.86106
8.85179
8.8388
8.82677
8.81636
8.80749
8.80003
8.79381
8.78867
8.78446
8.78104
8.77827
8.77604
8.77425
8.77282
8.77168
8.77078
8.77007
8.76951
8.76906
8.7687
8.76842
8.76821
8.76803
8.7679
8.76779
8.76771
8.76764
8.76759
8.76755
8.76752
8.76749
8.76747
8.76746
8.76745
8.76744
8.76743
8.76743
8.76742
8.76743
8.76743
8.76744
8.76744
8.76744
8.76743
8.76742
8.76741
8.76741
8.76741
8.76741
8.7674
8.7674
8.7674
8.7674
8.7674
8.7674
8.7674
8.7674
8.7674
8.7674
8.7674
8.7674
8.7674
8.7674
8.7674
8.7674
8.7674
8.7674
8.7674
8.7674