/*--------------------------------*- C++ -*----------------------------------*\
| =========                 |                                                 |
| \\      /  F ield         | foam-extend: Open Source CFD                    |
|  \\    /   O peration     | Version:     4.0                                |
|   \\  /    A nd           | Web:         http://www.foam-extend.org         |
|    \\/     M anipulation  |                                                 |
\*---------------------------------------------------------------------------*/
FoamFile
{
    version     2.0;
    format      ascii;
    class       volScalarField;
    location    "2.00098e-05";
    object      nut;
}
// * * * * * * * * * * * * * * * * * * * * * * * * * * * * * * * * * * * * * //

dimensions      [0 2 -1 0 0 0 0];

internalField   nonuniform List<scalar> 
28770
(
6.19876e-10
4.65818e-10
6.5363e-10
7.66858e-10
8.08197e-10
8.19609e-10
8.22005e-10
8.2224e-10
8.22075e-10
8.21775e-10
8.21408e-10
8.20991e-10
8.20509e-10
8.19965e-10
8.1934e-10
8.18637e-10
8.17834e-10
8.16936e-10
8.15913e-10
8.14776e-10
8.13483e-10
8.12055e-10
8.10432e-10
8.08651e-10
8.06633e-10
8.04434e-10
8.01948e-10
7.99263e-10
7.96239e-10
7.93003e-10
7.89381e-10
7.85548e-10
7.81292e-10
7.76847e-10
7.71967e-10
7.66946e-10
7.61524e-10
7.5604e-10
7.5025e-10
7.44515e-10
7.38637e-10
7.32935e-10
7.27071e-10
7.20086e-10
7.06235e-10
6.66292e-10
5.55857e-10
3.35805e-10
9.26245e-11
6.58472e-12
4.63047e-08
7.53212e-08
1.08215e-07
1.26274e-07
1.33011e-07
1.34883e-07
1.35272e-07
1.35302e-07
1.35264e-07
1.35202e-07
1.35127e-07
1.35042e-07
1.34943e-07
1.34832e-07
1.34704e-07
1.34561e-07
1.34396e-07
1.34213e-07
1.34004e-07
1.33772e-07
1.33508e-07
1.33218e-07
1.32886e-07
1.32525e-07
1.32113e-07
1.31669e-07
1.31161e-07
1.30621e-07
1.30005e-07
1.29356e-07
1.2862e-07
1.27854e-07
1.26993e-07
1.26108e-07
1.25125e-07
1.24131e-07
1.23044e-07
1.21963e-07
1.20809e-07
1.19684e-07
1.18521e-07
1.17409e-07
1.16265e-07
1.14958e-07
1.1252e-07
1.05784e-07
8.73304e-08
5.02396e-08
9.86092e-09
9.92451e-11
8.90541e-07
1.3942e-06
1.86778e-06
2.13938e-06
2.24569e-06
2.27632e-06
2.28288e-06
2.28348e-06
2.28291e-06
2.28196e-06
2.2808e-06
2.27947e-06
2.27794e-06
2.27621e-06
2.27423e-06
2.272e-06
2.26945e-06
2.26661e-06
2.26335e-06
2.25976e-06
2.25565e-06
2.25113e-06
2.24597e-06
2.24035e-06
2.23394e-06
2.227e-06
2.2191e-06
2.21064e-06
2.20104e-06
2.19086e-06
2.17936e-06
2.16732e-06
2.15383e-06
2.13988e-06
2.12444e-06
2.10871e-06
2.09158e-06
2.07443e-06
2.05619e-06
2.03827e-06
2.0198e-06
2.00199e-06
1.98342e-06
1.9605e-06
1.91155e-06
1.76323e-06
1.3484e-06
5.91865e-07
6.01463e-08
3.98566e-10
6.74777e-06
8.93893e-06
1.09938e-05
1.22324e-05
1.27478e-05
1.2905e-05
1.29405e-05
1.29442e-05
1.29411e-05
1.29362e-05
1.293e-05
1.2923e-05
1.29149e-05
1.29058e-05
1.28953e-05
1.28835e-05
1.287e-05
1.28549e-05
1.28377e-05
1.28186e-05
1.27968e-05
1.27728e-05
1.27455e-05
1.27156e-05
1.26816e-05
1.26446e-05
1.26027e-05
1.25576e-05
1.25064e-05
1.24521e-05
1.23908e-05
1.23264e-05
1.22542e-05
1.21795e-05
1.20967e-05
1.20121e-05
1.192e-05
1.18275e-05
1.1729e-05
1.16321e-05
1.15319e-05
1.14342e-05
1.13264e-05
1.11606e-05
1.06981e-05
9.19778e-06
5.68262e-06
1.66591e-06
1.19542e-07
7.39402e-10
2.73636e-05
3.3061e-05
3.77691e-05
4.06412e-05
4.18976e-05
4.23056e-05
4.24037e-05
4.24154e-05
4.24065e-05
4.23928e-05
4.23757e-05
4.2356e-05
4.23332e-05
4.23074e-05
4.22778e-05
4.22445e-05
4.22064e-05
4.21638e-05
4.21152e-05
4.20613e-05
4.19997e-05
4.19318e-05
4.18544e-05
4.17696e-05
4.1673e-05
4.1568e-05
4.14486e-05
4.132e-05
4.11741e-05
4.10185e-05
4.08428e-05
4.06577e-05
4.045e-05
4.02341e-05
3.99944e-05
3.97489e-05
3.94806e-05
3.92104e-05
3.89218e-05
3.86365e-05
3.83397e-05
3.80404e-05
3.76543e-05
3.67912e-05
3.38001e-05
2.50473e-05
1.1425e-05
2.48298e-06
1.5686e-07
9.55078e-10
5.91044e-05
7.2012e-05
7.99552e-05
8.38932e-05
8.55739e-05
8.61416e-05
8.62887e-05
8.63112e-05
8.63025e-05
8.62862e-05
8.6266e-05
8.62424e-05
8.62152e-05
8.61844e-05
8.6149e-05
8.61091e-05
8.60636e-05
8.60125e-05
8.59543e-05
8.58894e-05
8.58155e-05
8.57336e-05
8.56402e-05
8.55376e-05
8.54206e-05
8.5293e-05
8.51476e-05
8.49904e-05
8.48116e-05
8.46201e-05
8.44031e-05
8.41732e-05
8.39143e-05
8.36435e-05
8.33413e-05
8.30298e-05
8.26873e-05
8.23399e-05
8.19662e-05
8.15935e-05
8.11978e-05
8.07549e-05
7.9936e-05
7.71495e-05
6.66686e-05
4.15702e-05
1.50763e-05
2.85597e-06
1.73245e-07
1.04995e-09
7.78395e-05
9.78253e-05
0.000108168
0.000112565
0.000114253
0.000114826
0.000114984
0.000115016
0.000115017
0.000115009
0.000115
0.000114989
0.000114976
0.000114962
0.000114945
0.000114926
0.000114905
0.000114881
0.000114854
0.000114823
0.000114789
0.00011475
0.000114706
0.000114658
0.000114603
0.000114543
0.000114475
0.000114402
0.000114318
0.000114228
0.000114126
0.000114019
0.000113898
0.000113771
0.000113629
0.000113484
0.000113324
0.000113162
0.000112987
0.000112812
0.000112615
0.000112308
0.000111273
0.000106517
8.83448e-05
5.00245e-05
1.64967e-05
2.99097e-06
1.79424e-07
1.0858e-09
8.33711e-05
0.000106061
0.000117214
0.000121875
0.000123561
0.000124131
0.000124293
0.00012433
0.000124336
0.000124335
0.000124333
0.00012433
0.000124326
0.000124322
0.000124318
0.000124313
0.000124308
0.000124301
0.000124295
0.000124287
0.000124278
0.000124269
0.000124258
0.000124247
0.000124234
0.00012422
0.000124205
0.000124189
0.000124171
0.000124152
0.000124132
0.000124111
0.000124089
0.000124068
0.000124046
0.000124025
0.000124004
0.000123986
0.00012397
0.000123955
0.000123925
0.000123761
0.000122721
0.000117211
9.59815e-05
5.28419e-05
1.69953e-05
3.0488e-06
1.82445e-07
1.1034e-09
8.45163e-05
0.000107816
0.000119168
0.000123907
0.000125597
0.000126166
0.00012633
0.000126369
0.000126376
0.000126377
0.000126376
0.000126376
0.000126375
0.000126374
0.000126374
0.000126373
0.000126372
0.000126371
0.00012637
0.000126369
0.000126369
0.000126368
0.000126367
0.000126367
0.000126366
0.000126366
0.000126367
0.000126368
0.00012637
0.000126374
0.000126378
0.000126385
0.000126395
0.000126407
0.000126423
0.000126444
0.00012647
0.000126502
0.000126541
0.000126584
0.000126617
0.000126512
0.000125513
0.000119907
9.81179e-05
5.38598e-05
1.7259e-05
3.09046e-06
1.84896e-07
1.11776e-09
8.47047e-05
0.000108106
0.000119508
0.000124273
0.000125962
0.000126529
0.000126692
0.000126731
0.000126739
0.00012674
0.00012674
0.00012674
0.00012674
0.00012674
0.00012674
0.00012674
0.00012674
0.000126741
0.000126741
0.000126741
0.000126742
0.000126743
0.000126745
0.000126747
0.000126749
0.000126752
0.000126756
0.000126761
0.000126768
0.000126776
0.000126787
0.000126801
0.000126818
0.000126839
0.000126865
0.000126898
0.000126937
0.000126984
0.00012704
0.000127102
0.000127158
0.000127082
0.00012613
0.000120623
9.89909e-05
5.45605e-05
1.75131e-05
3.13681e-06
1.87733e-07
1.13438e-09
8.47257e-05
0.000108139
0.000119558
0.000124336
0.000126022
0.000126586
0.000126749
0.000126788
0.000126795
0.000126796
0.000126797
0.000126797
0.000126797
0.000126797
0.000126797
0.000126797
0.000126797
0.000126798
0.000126799
0.000126799
0.0001268
0.000126802
0.000126804
0.000126806
0.000126809
0.000126813
0.000126817
0.000126824
0.000126831
0.000126841
0.000126853
0.000126869
0.000126888
0.000126913
0.000126942
0.00012698
0.000127025
0.000127079
0.000127145
0.000127218
0.000127293
0.00012724
0.000126341
0.000120987
9.96932e-05
5.52951e-05
1.78078e-05
3.19234e-06
1.91168e-07
1.15454e-09
8.47234e-05
0.000108137
0.000119568
0.000124353
0.000126034
0.000126595
0.000126757
0.000126795
0.000126803
0.000126804
0.000126804
0.000126804
0.000126804
0.000126805
0.000126805
0.000126805
0.000126805
0.000126806
0.000126807
0.000126807
0.000126809
0.00012681
0.000126812
0.000126814
0.000126817
0.000126821
0.000126826
0.000126833
0.000126841
0.000126851
0.000126865
0.000126881
0.000126902
0.000126929
0.000126961
0.000127003
0.000127053
0.000127115
0.000127191
0.000127275
0.000127369
0.000127345
0.000126512
0.000121354
0.000100521
5.62217e-05
1.81876e-05
3.26403e-06
1.95604e-07
1.18054e-09
8.472e-05
0.000108134
0.000119574
0.000124364
0.00012604
0.000126598
0.000126758
0.000126796
0.000126804
0.000126805
0.000126805
0.000126805
0.000126805
0.000126806
0.000126806
0.000126806
0.000126806
0.000126807
0.000126808
0.000126809
0.00012681
0.000126811
0.000126813
0.000126816
0.000126819
0.000126823
0.000126828
0.000126835
0.000126843
0.000126854
0.000126868
0.000126886
0.000126908
0.000126937
0.000126973
0.000127019
0.000127075
0.000127146
0.000127231
0.000127329
0.000127455
0.000127465
0.000126713
0.000121811
0.000101582
5.74406e-05
1.8694e-05
3.35982e-06
2.0154e-07
1.21531e-09
8.47177e-05
0.000108132
0.000119578
0.00012438
0.000126046
0.000126599
0.000126758
0.000126797
0.000126804
0.000126806
0.000126806
0.000126806
0.000126806
0.000126806
0.000126806
0.000126806
0.000126807
0.000126807
0.000126808
0.000126809
0.00012681
0.000126812
0.000126814
0.000126816
0.000126819
0.000126824
0.000126829
0.000126836
0.000126845
0.000126856
0.000126871
0.00012689
0.000126914
0.000126945
0.000126984
0.000127036
0.000127098
0.000127181
0.00012728
0.000127397
0.000127548
0.000127607
0.000126978
0.000122487
0.000103232
5.94014e-05
1.95159e-05
3.5137e-06
2.10945e-07
1.26722e-09
8.47165e-05
0.000108133
0.000119581
0.000124404
0.000126055
0.000126602
0.00012676
0.000126798
0.000126805
0.000126806
0.000126806
0.000126807
0.000126807
0.000126807
0.000126807
0.000126807
0.000126808
0.000126808
0.000126809
0.00012681
0.000126811
0.000126812
0.000126814
0.000126817
0.00012682
0.000126825
0.00012683
0.000126838
0.000126847
0.000126859
0.000126874
0.000126895
0.00012692
0.000126954
0.000126996
0.000127054
0.000127124
0.000127224
0.000127328
0.000127486
0.000127686
0.000127817
0.000127385
0.000123684
0.000106355
6.33839e-05
2.12622e-05
3.8543e-06
2.32912e-07
1.30117e-09
8.47161e-05
0.000108134
0.000119583
0.000124435
0.000126067
0.000126606
0.000126763
0.000126801
0.000126808
0.00012681
0.00012681
0.00012681
0.00012681
0.00012681
0.00012681
0.00012681
0.000126811
0.000126811
0.000126812
0.000126813
0.000126814
0.000126816
0.000126818
0.00012682
0.000126824
0.000126828
0.000126834
0.000126842
0.000126851
0.000126864
0.00012688
0.000126901
0.000126928
0.000126964
0.00012701
0.000127074
0.000127153
0.000127266
0.000127389
0.00012758
0.000127792
0.000127942
0.000127978
0.000126531
0.000116742
8.21691e-05
3.30138e-05
7.27946e-06
6.94154e-07
5.86541e-09
8.47169e-05
0.000108138
0.000119589
0.000124471
0.000126086
0.000126619
0.000126774
0.000126812
0.000126819
0.000126821
0.000126821
0.000126821
0.000126821
0.000126821
0.000126821
0.000126821
0.000126822
0.000126822
0.000126823
0.000126824
0.000126825
0.000126827
0.000126828
0.000126831
0.000126835
0.000126839
0.000126845
0.000126853
0.000126863
0.000126876
0.000126892
0.000126913
0.00012694
0.000126976
0.000127025
0.000127093
0.000127183
0.000127302
0.000127462
0.000127662
0.000127921
0.000128163
0.000128409
0.000127792
0.000121005
9.10302e-05
3.90862e-05
8.74078e-06
8.07612e-07
6.18821e-09
8.47195e-05
0.000108145
0.000119603
0.00012452
0.000126124
0.000126652
0.000126806
0.000126844
0.000126851
0.000126853
0.000126853
0.000126853
0.000126853
0.000126853
0.000126853
0.000126853
0.000126853
0.000126854
0.000126854
0.000126855
0.000126856
0.000126858
0.00012686
0.000126863
0.000126866
0.000126871
0.000126876
0.000126884
0.000126894
0.000126907
0.000126922
0.00012694
0.000126962
0.000126994
0.000127043
0.000127115
0.000127215
0.000127348
0.000127533
0.000127764
0.000128065
0.000128398
0.000128838
0.000128815
0.00012434
9.90461e-05
4.5451e-05
1.02456e-05
9.39438e-07
7.20463e-09
8.4725e-05
0.000108159
0.000119629
0.000124589
0.000126199
0.000126728
0.000126883
0.000126921
0.000126928
0.00012693
0.000126929
0.00012693
0.000126929
0.00012693
0.000126929
0.00012693
0.00012693
0.00012693
0.000126931
0.000126932
0.000126933
0.000126934
0.000126936
0.000126939
0.000126942
0.000126946
0.000126952
0.00012696
0.000126969
0.000126979
0.000126988
0.000126992
0.000126997
0.000127016
0.000127062
0.000127137
0.000127248
0.000127397
0.000127612
0.00012789
0.000128237
0.00012866
0.000129294
0.000129768
0.000127323
0.000103323
4.78515e-05
1.03357e-05
8.71089e-07
3.73453e-09
8.47334e-05
0.000108178
0.000119669
0.000124686
0.00012633
0.000126869
0.000127027
0.000127065
0.000127072
0.000127073
0.000127073
0.000127073
0.000127073
0.000127073
0.000127073
0.000127073
0.000127073
0.000127074
0.000127074
0.000127075
0.000127076
0.000127077
0.000127079
0.000127082
0.000127085
0.00012709
0.000127095
0.000127102
0.000127109
0.000127111
0.0001271
0.000127067
0.000127038
0.00012704
0.000127081
0.00012716
0.000127282
0.00012745
0.000127695
0.000128027
0.000128431
0.000128957
0.000129789
0.000130682
0.000129775
0.000109035
5.86227e-05
1.35196e-05
1.16415e-06
5.01108e-09
8.47436e-05
0.000108202
0.00011972
0.000124804
0.000126509
0.000127066
0.000127227
0.000127265
0.000127272
0.000127273
0.000127273
0.000127273
0.000127273
0.000127273
0.000127273
0.000127273
0.000127274
0.000127274
0.000127274
0.000127275
0.000127276
0.000127278
0.00012728
0.000127282
0.000127286
0.000127291
0.000127296
0.000127301
0.0001273
0.000127282
0.00012722
0.000127134
0.000127072
0.00012706
0.000127098
0.000127182
0.000127315
0.000127504
0.00012778
0.000128169
0.000128635
0.000129285
0.000130323
0.000131537
0.000118755
9.21086e-05
7.13966e-05
1.8314e-05
1.58879e-06
6.86533e-09
8.47539e-05
0.000108226
0.000119771
0.000124923
0.000126702
0.00012728
0.000127443
0.000127481
0.000127488
0.000127489
0.000127489
0.000127489
0.000127489
0.000127489
0.000127489
0.00012749
0.00012749
0.00012749
0.000127491
0.000127492
0.000127493
0.000127495
0.000127497
0.0001275
0.000127503
0.000127508
0.000127512
0.000127511
0.000127492
0.000127425
0.000127305
0.000127178
0.000127095
0.000127074
0.000127112
0.000127202
0.000127346
0.000127554
0.00012786
0.000128306
0.000128836
0.000129625
0.000130862
0.000128219
0.000104693
7.78938e-05
5.8999e-05
2.65949e-05
2.43813e-06
1.07803e-08
8.4763e-05
0.000108247
0.000119816
0.000125029
0.000126877
0.000127472
0.000127637
0.000127675
0.000127682
0.000127683
0.000127683
0.000127683
0.000127683
0.000127683
0.000127683
0.000127683
0.000127684
0.000127684
0.000127685
0.000127686
0.000127687
0.000127689
0.000127691
0.000127695
0.000127698
0.000127702
0.000127702
0.000127687
0.00012763
0.00012751
0.000127352
0.000127203
0.000127109
0.000127085
0.000127124
0.000127219
0.000127372
0.000127599
0.000127932
0.00012843
0.000129016
0.000129951
0.000131343
0.00011693
9.322e-05
6.7498e-05
4.93524e-05
3.28099e-05
3.85005e-06
5.37643e-08
8.47702e-05
0.000108263
0.000119852
0.000125111
0.000127015
0.000127624
0.00012779
0.000127828
0.000127834
0.000127836
0.000127836
0.000127836
0.000127836
0.000127836
0.000127836
0.000127836
0.000127837
0.000127837
0.000127838
0.000127839
0.000127841
0.000127843
0.000127845
0.000127849
0.000127852
0.000127853
0.000127843
0.000127799
0.000127699
0.000127549
0.000127372
0.000127214
0.000127116
0.000127092
0.000127133
0.000127232
0.000127393
0.000127633
0.000127988
0.000128528
0.00012916
0.000130227
0.000131714
0.000108177
8.44393e-05
6.05809e-05
4.35124e-05
2.80964e-05
1.06838e-05
2.22883e-07
8.47749e-05
0.000108274
0.000119876
0.000125168
0.000127112
0.000127731
0.000127897
0.000127935
0.000127941
0.000127943
0.000127943
0.000127943
0.000127943
0.000127943
0.000127943
0.000127944
0.000127944
0.000127945
0.000127945
0.000127947
0.000127948
0.000127951
0.000127953
0.000127956
0.000127958
0.000127955
0.000127926
0.000127854
0.000127733
0.000127569
0.000127385
0.000127222
0.000127121
0.000127097
0.000127138
0.000127241
0.000127406
0.000127656
0.000128025
0.000128592
0.000129249
0.000130424
0.000129995
0.000102322
7.87286e-05
5.61438e-05
3.97863e-05
2.63841e-05
1.55745e-05
4.54317e-06
8.47766e-05
0.000108278
0.000119885
0.000125192
0.000127157
0.000127779
0.000127945
0.000127983
0.00012799
0.000127991
0.000127991
0.000127991
0.000127991
0.000127991
0.000127991
0.000127992
0.000127992
0.000127993
0.000127994
0.000127995
0.000127997
0.000127999
0.000128001
0.000128005
0.000128005
0.000127995
0.000127954
0.000127873
0.000127747
0.00012758
0.000127393
0.000127228
0.000127125
0.000127099
0.00012714
0.000127244
0.00012741
0.000127664
0.000128038
0.000128614
0.000129273
0.000130516
0.000127008
9.95548e-05
7.61134e-05
5.40872e-05
3.83021e-05
2.5835e-05
1.67668e-05
1.25617e-05
8.47749e-05
0.000108274
0.000119876
0.000125168
0.000127112
0.000127731
0.000127897
0.000127935
0.000127941
0.000127943
0.000127943
0.000127943
0.000127943
0.000127943
0.000127943
0.000127944
0.000127944
0.000127945
0.000127945
0.000127947
0.000127948
0.000127951
0.000127953
0.000127956
0.000127958
0.000127955
0.000127927
0.000127856
0.000127735
0.000127571
0.000127385
0.000127222
0.000127121
0.000127096
0.000127138
0.000127241
0.000127406
0.000127656
0.000128025
0.000128592
0.000129223
0.000130486
0.000127332
0.000100098
7.67769e-05
5.47635e-05
3.89638e-05
2.6133e-05
1.4796e-05
5.68556e-06
8.47702e-05
0.000108263
0.000119852
0.000125111
0.000127015
0.000127624
0.00012779
0.000127828
0.000127834
0.000127836
0.000127836
0.000127836
0.000127836
0.000127836
0.000127836
0.000127836
0.000127837
0.000127837
0.000127838
0.000127839
0.000127841
0.000127843
0.000127845
0.000127849
0.000127852
0.000127853
0.000127844
0.000127803
0.000127705
0.000127552
0.000127373
0.000127214
0.000127116
0.000127091
0.000127132
0.000127232
0.000127392
0.000127633
0.000127988
0.000128528
0.000129111
0.00013034
0.000131011
0.00010393
8.05999e-05
5.85771e-05
4.19904e-05
2.72994e-05
1.38853e-05
2.93212e-07
8.4763e-05
0.000108247
0.000119816
0.000125029
0.000126877
0.000127472
0.000127637
0.000127675
0.000127682
0.000127683
0.000127683
0.000127683
0.000127683
0.000127683
0.000127683
0.000127683
0.000127684
0.000127684
0.000127685
0.000127686
0.000127687
0.000127689
0.000127691
0.000127695
0.000127698
0.000127702
0.000127702
0.000127689
0.000127631
0.000127511
0.000127352
0.000127202
0.000127108
0.000127084
0.000127124
0.000127219
0.000127372
0.000127599
0.000127932
0.00012843
0.00012895
0.000130099
0.000131548
0.000110856
8.75677e-05
6.57301e-05
4.79602e-05
3.03751e-05
7.00411e-06
6.1665e-08
8.47539e-05
0.000108226
0.000119771
0.000124923
0.000126702
0.00012728
0.000127443
0.000127481
0.000127488
0.000127489
0.000127489
0.000127489
0.000127489
0.000127489
0.000127489
0.00012749
0.00012749
0.00012749
0.000127491
0.000127492
0.000127493
0.000127495
0.000127497
0.0001275
0.000127503
0.000127508
0.000127512
0.000127511
0.000127493
0.000127425
0.000127304
0.000127177
0.000127094
0.000127074
0.000127112
0.000127202
0.000127346
0.000127554
0.00012786
0.000128306
0.000128757
0.000129793
0.000131117
0.000120678
9.73159e-05
7.61215e-05
5.74145e-05
2.9615e-05
2.80982e-06
1.28708e-08
8.47436e-05
0.000108202
0.00011972
0.000124804
0.000126509
0.000127066
0.000127227
0.000127265
0.000127272
0.000127273
0.000127273
0.000127273
0.000127273
0.000127273
0.000127273
0.000127273
0.000127274
0.000127274
0.000127274
0.000127275
0.000127276
0.000127278
0.00012728
0.000127282
0.000127286
0.000127291
0.000127296
0.000127301
0.0001273
0.000127282
0.00012722
0.000127133
0.000127072
0.000127059
0.000127098
0.000127182
0.000127315
0.000127504
0.00012778
0.000128169
0.000128551
0.000129454
0.000130596
0.00013191
0.000109534
8.8333e-05
6.68473e-05
1.99238e-05
1.73876e-06
7.52817e-09
8.47334e-05
0.000108178
0.000119669
0.000124686
0.00012633
0.000126869
0.000127027
0.000127065
0.000127072
0.000127073
0.000127073
0.000127073
0.000127073
0.000127073
0.000127073
0.000127073
0.000127073
0.000127074
0.000127074
0.000127075
0.000127076
0.000127077
0.000127079
0.000127082
0.000127085
0.00012709
0.000127095
0.000127102
0.000127109
0.000127111
0.0001271
0.000127067
0.000127037
0.00012704
0.000127081
0.00012716
0.000127282
0.00012745
0.000127695
0.000128027
0.000128349
0.000129114
0.00013005
0.000131123
0.000124529
0.00010112
6.17102e-05
1.45136e-05
1.24991e-06
5.38107e-09
8.4725e-05
0.000108159
0.000119629
0.000124589
0.000126199
0.000126728
0.000126883
0.000126921
0.000126928
0.00012693
0.000126929
0.00012693
0.000126929
0.00012693
0.000126929
0.00012693
0.00012693
0.00012693
0.000126931
0.000126932
0.000126933
0.000126934
0.000126936
0.000126939
0.000126942
0.000126946
0.000126952
0.00012696
0.000126969
0.000126979
0.000126988
0.000126992
0.000126997
0.000127016
0.000127062
0.000127137
0.000127248
0.000127397
0.000127612
0.00012789
0.000128162
0.000128798
0.00012953
0.000130222
0.000128615
0.000102168
5.02854e-05
1.10232e-05
9.40414e-07
4.05404e-09
8.47195e-05
0.000108145
0.000119603
0.00012452
0.000126124
0.000126652
0.000126806
0.000126844
0.000126851
0.000126853
0.000126853
0.000126853
0.000126853
0.000126853
0.000126853
0.000126853
0.000126853
0.000126854
0.000126854
0.000126855
0.000126856
0.000126858
0.00012686
0.000126863
0.000126866
0.000126871
0.000126876
0.000126884
0.000126894
0.000126907
0.000126922
0.000126939
0.000126962
0.000126994
0.000127043
0.000127115
0.000127215
0.000127348
0.000127533
0.000127764
0.000128004
0.000128516
0.000129054
0.000129287
0.000125837
0.000103085
4.93334e-05
1.12947e-05
1.04845e-06
8.12602e-09
8.47169e-05
0.000108138
0.000119589
0.000124471
0.000126086
0.000126619
0.000126774
0.000126812
0.000126819
0.000126821
0.000126821
0.000126821
0.000126821
0.000126821
0.000126821
0.000126821
0.000126822
0.000126822
0.000126823
0.000126824
0.000126825
0.000126827
0.000126828
0.000126831
0.000126835
0.000126839
0.000126845
0.000126853
0.000126863
0.000126876
0.000126892
0.000126913
0.00012694
0.000126976
0.000127025
0.000127093
0.000127183
0.000127302
0.000127462
0.000127662
0.000127874
0.000128269
0.000128618
0.00012832
0.00012276
9.50995e-05
4.21589e-05
9.44945e-06
8.67864e-07
6.65115e-09
8.47161e-05
0.000108134
0.000119583
0.000124435
0.000126067
0.000126606
0.000126763
0.000126801
0.000126808
0.00012681
0.00012681
0.00012681
0.00012681
0.00012681
0.00012681
0.00012681
0.000126811
0.000126811
0.000126812
0.000126813
0.000126814
0.000126816
0.000126818
0.00012682
0.000126824
0.000126828
0.000126834
0.000126842
0.000126851
0.000126864
0.00012688
0.000126901
0.000126928
0.000126964
0.00012701
0.000127074
0.000127153
0.000127266
0.000127389
0.00012758
0.000127738
0.000128043
0.000128195
0.000127203
0.000119025
8.67548e-05
3.61129e-05
8.06014e-06
7.53062e-07
5.84776e-09
8.47165e-05
0.000108133
0.000119581
0.000124404
0.000126055
0.000126602
0.00012676
0.000126798
0.000126805
0.000126806
0.000126806
0.000126807
0.000126807
0.000126807
0.000126807
0.000126807
0.000126808
0.000126808
0.000126809
0.00012681
0.000126811
0.000126812
0.000126814
0.000126817
0.00012682
0.000126825
0.00012683
0.000126838
0.000126847
0.000126859
0.000126874
0.000126895
0.00012692
0.000126954
0.000126996
0.000127054
0.000127124
0.000127224
0.000127328
0.000127486
0.000127686
0.000127817
0.000127385
0.000123684
0.000106355
6.33839e-05
2.12623e-05
3.8543e-06
2.32911e-07
1.30116e-09
8.47177e-05
0.000108132
0.000119578
0.00012438
0.000126046
0.000126599
0.000126758
0.000126797
0.000126804
0.000126806
0.000126806
0.000126806
0.000126806
0.000126806
0.000126806
0.000126806
0.000126807
0.000126807
0.000126808
0.000126809
0.00012681
0.000126812
0.000126814
0.000126816
0.000126819
0.000126824
0.000126829
0.000126836
0.000126845
0.000126856
0.000126871
0.00012689
0.000126914
0.000126945
0.000126984
0.000127036
0.000127098
0.000127181
0.00012728
0.000127397
0.000127548
0.000127607
0.000126978
0.000122487
0.000103232
5.94014e-05
1.95159e-05
3.5137e-06
2.10945e-07
1.26721e-09
8.472e-05
0.000108134
0.000119574
0.000124364
0.00012604
0.000126598
0.000126758
0.000126796
0.000126804
0.000126805
0.000126805
0.000126805
0.000126805
0.000126806
0.000126806
0.000126806
0.000126806
0.000126807
0.000126808
0.000126809
0.00012681
0.000126811
0.000126813
0.000126816
0.000126819
0.000126823
0.000126828
0.000126835
0.000126843
0.000126854
0.000126868
0.000126886
0.000126908
0.000126937
0.000126973
0.000127019
0.000127075
0.000127146
0.000127231
0.000127329
0.000127455
0.000127465
0.000126713
0.000121811
0.000101582
5.74406e-05
1.8694e-05
3.35982e-06
2.0154e-07
1.21531e-09
8.47234e-05
0.000108137
0.000119568
0.000124353
0.000126034
0.000126595
0.000126757
0.000126795
0.000126803
0.000126804
0.000126804
0.000126804
0.000126804
0.000126805
0.000126805
0.000126805
0.000126805
0.000126806
0.000126807
0.000126807
0.000126809
0.00012681
0.000126812
0.000126814
0.000126817
0.000126821
0.000126826
0.000126833
0.000126841
0.000126851
0.000126865
0.000126881
0.000126902
0.000126929
0.000126961
0.000127003
0.000127053
0.000127115
0.000127191
0.000127275
0.000127369
0.000127345
0.000126512
0.000121354
0.000100521
5.62218e-05
1.81876e-05
3.26403e-06
1.95604e-07
1.18053e-09
8.47257e-05
0.000108139
0.000119558
0.000124336
0.000126022
0.000126586
0.000126749
0.000126788
0.000126795
0.000126796
0.000126797
0.000126797
0.000126797
0.000126797
0.000126797
0.000126797
0.000126797
0.000126798
0.000126799
0.000126799
0.0001268
0.000126802
0.000126804
0.000126806
0.000126809
0.000126813
0.000126817
0.000126824
0.000126831
0.000126841
0.000126853
0.000126869
0.000126888
0.000126913
0.000126942
0.00012698
0.000127025
0.000127079
0.000127145
0.000127218
0.000127293
0.00012724
0.000126341
0.000120987
9.96933e-05
5.52952e-05
1.78078e-05
3.19234e-06
1.91168e-07
1.15454e-09
8.47047e-05
0.000108106
0.000119508
0.000124273
0.000125962
0.000126529
0.000126692
0.000126731
0.000126739
0.00012674
0.00012674
0.00012674
0.00012674
0.00012674
0.00012674
0.00012674
0.00012674
0.000126741
0.000126741
0.000126741
0.000126742
0.000126743
0.000126745
0.000126747
0.000126749
0.000126752
0.000126756
0.000126761
0.000126768
0.000126776
0.000126787
0.000126801
0.000126818
0.000126839
0.000126865
0.000126898
0.000126937
0.000126984
0.00012704
0.000127102
0.000127158
0.000127082
0.00012613
0.000120623
9.89909e-05
5.45605e-05
1.75131e-05
3.13681e-06
1.87733e-07
1.13437e-09
8.45163e-05
0.000107816
0.000119168
0.000123907
0.000125597
0.000126166
0.00012633
0.000126369
0.000126376
0.000126377
0.000126376
0.000126376
0.000126375
0.000126374
0.000126374
0.000126373
0.000126372
0.000126371
0.00012637
0.000126369
0.000126369
0.000126368
0.000126367
0.000126366
0.000126366
0.000126366
0.000126367
0.000126368
0.00012637
0.000126374
0.000126378
0.000126385
0.000126395
0.000126407
0.000126423
0.000126444
0.00012647
0.000126502
0.000126541
0.000126584
0.000126617
0.000126512
0.000125513
0.000119907
9.81179e-05
5.38599e-05
1.7259e-05
3.09046e-06
1.84895e-07
1.11776e-09
8.33711e-05
0.000106061
0.000117214
0.000121875
0.000123561
0.000124131
0.000124293
0.00012433
0.000124336
0.000124335
0.000124332
0.000124329
0.000124326
0.000124322
0.000124318
0.000124313
0.000124308
0.000124301
0.000124295
0.000124287
0.000124278
0.000124269
0.000124258
0.000124247
0.000124234
0.00012422
0.000124205
0.000124189
0.000124171
0.000124152
0.000124132
0.000124111
0.000124089
0.000124068
0.000124046
0.000124025
0.000124004
0.000123986
0.00012397
0.000123955
0.000123925
0.000123761
0.000122721
0.000117211
9.59815e-05
5.28419e-05
1.69954e-05
3.0488e-06
1.82445e-07
1.1034e-09
7.78395e-05
9.78253e-05
0.000108168
0.000112565
0.000114253
0.000114826
0.000114984
0.000115016
0.000115017
0.000115009
0.000115
0.000114989
0.000114976
0.000114962
0.000114945
0.000114926
0.000114905
0.000114881
0.000114854
0.000114823
0.000114789
0.00011475
0.000114706
0.000114658
0.000114603
0.000114543
0.000114475
0.000114402
0.000114318
0.000114228
0.000114126
0.000114019
0.000113898
0.000113771
0.000113629
0.000113484
0.000113324
0.000113162
0.000112987
0.000112812
0.000112615
0.000112308
0.000111273
0.000106517
8.83448e-05
5.00245e-05
1.64967e-05
2.99097e-06
1.79424e-07
1.08579e-09
5.91043e-05
7.2012e-05
7.99552e-05
8.38931e-05
8.55738e-05
8.61416e-05
8.62887e-05
8.63111e-05
8.63024e-05
8.62861e-05
8.62659e-05
8.62423e-05
8.62151e-05
8.61843e-05
8.61489e-05
8.61091e-05
8.60635e-05
8.60124e-05
8.59542e-05
8.58893e-05
8.58154e-05
8.57335e-05
8.56402e-05
8.55375e-05
8.54206e-05
8.52929e-05
8.51476e-05
8.49903e-05
8.48115e-05
8.462e-05
8.4403e-05
8.41731e-05
8.39142e-05
8.36434e-05
8.33412e-05
8.30297e-05
8.26872e-05
8.23398e-05
8.19662e-05
8.15934e-05
8.11977e-05
8.07548e-05
7.9936e-05
7.71494e-05
6.66685e-05
4.15702e-05
1.50763e-05
2.85597e-06
1.73245e-07
1.04995e-09
2.73636e-05
3.3061e-05
3.77691e-05
4.06412e-05
4.18976e-05
4.23055e-05
4.24036e-05
4.24153e-05
4.24065e-05
4.23928e-05
4.23757e-05
4.23559e-05
4.23331e-05
4.23073e-05
4.22777e-05
4.22444e-05
4.22063e-05
4.21638e-05
4.21152e-05
4.20612e-05
4.19997e-05
4.19318e-05
4.18543e-05
4.17695e-05
4.16729e-05
4.1568e-05
4.14485e-05
4.13199e-05
4.1174e-05
4.10185e-05
4.08428e-05
4.06577e-05
4.045e-05
4.02341e-05
3.99944e-05
3.97488e-05
3.94806e-05
3.92103e-05
3.89217e-05
3.86364e-05
3.83397e-05
3.80404e-05
3.76542e-05
3.67912e-05
3.38001e-05
2.50473e-05
1.1425e-05
2.48298e-06
1.5686e-07
9.55078e-10
6.74777e-06
8.93893e-06
1.09938e-05
1.22323e-05
1.27478e-05
1.2905e-05
1.29405e-05
1.29442e-05
1.29411e-05
1.29362e-05
1.293e-05
1.2923e-05
1.29149e-05
1.29058e-05
1.28953e-05
1.28835e-05
1.287e-05
1.28549e-05
1.28377e-05
1.28186e-05
1.27968e-05
1.27728e-05
1.27455e-05
1.27156e-05
1.26815e-05
1.26446e-05
1.26027e-05
1.25576e-05
1.25064e-05
1.24521e-05
1.23908e-05
1.23264e-05
1.22542e-05
1.21795e-05
1.20966e-05
1.20121e-05
1.192e-05
1.18275e-05
1.1729e-05
1.16321e-05
1.15319e-05
1.14342e-05
1.13263e-05
1.11606e-05
1.06981e-05
9.19778e-06
5.68262e-06
1.66591e-06
1.19542e-07
7.39403e-10
8.9054e-07
1.3942e-06
1.86778e-06
2.13938e-06
2.24569e-06
2.27632e-06
2.28288e-06
2.28348e-06
2.28291e-06
2.28196e-06
2.28079e-06
2.27947e-06
2.27794e-06
2.27621e-06
2.27423e-06
2.272e-06
2.26945e-06
2.26661e-06
2.26335e-06
2.25976e-06
2.25565e-06
2.25113e-06
2.24597e-06
2.24035e-06
2.23393e-06
2.227e-06
2.2191e-06
2.21064e-06
2.20104e-06
2.19085e-06
2.17936e-06
2.16732e-06
2.15383e-06
2.13988e-06
2.12444e-06
2.10871e-06
2.09158e-06
2.07443e-06
2.05619e-06
2.03827e-06
2.0198e-06
2.00199e-06
1.98342e-06
1.9605e-06
1.91155e-06
1.76323e-06
1.3484e-06
5.91866e-07
6.01464e-08
3.98568e-10
4.63046e-08
7.53211e-08