/*--------------------------------*- C++ -*----------------------------------*\
| =========                 |                                                 |
| \\      /  F ield         | foam-extend: Open Source CFD                    |
|  \\    /   O peration     | Version:     4.0                                |
|   \\  /    A nd           | Web:         http://www.foam-extend.org         |
|    \\/     M anipulation  |                                                 |
\*---------------------------------------------------------------------------*/
FoamFile
{
    version     2.0;
    format      ascii;
    class       volScalarField;
    location    "2.00098e-05";
    object      omega;
}
// * * * * * * * * * * * * * * * * * * * * * * * * * * * * * * * * * * * * * //

dimensions      [0 0 -1 0 0 0 0];

internalField   nonuniform List<scalar> 
28770
(
1.87595e+07
1.87595e+07
1.87595e+07
1.87595e+07
1.87595e+07
1.87595e+07
1.87595e+07
1.87595e+07
1.87595e+07
1.87595e+07
1.87595e+07
1.87595e+07
1.87595e+07
1.87595e+07
1.87595e+07
1.87595e+07
1.87595e+07
1.87595e+07
1.87595e+07
1.87595e+07
1.87595e+07
1.87595e+07
1.87595e+07
1.87595e+07
1.87595e+07
1.87595e+07
1.87595e+07
1.87595e+07
1.87595e+07
1.87595e+07
1.87595e+07
1.87595e+07
1.87595e+07
1.87595e+07
1.87595e+07
1.87595e+07
1.87595e+07
1.87595e+07
1.87595e+07
1.87595e+07
1.87595e+07
1.87595e+07
1.87595e+07
1.87595e+07
1.87595e+07
1.87595e+07
1.87595e+07
1.87595e+07
1.87595e+07
1.87595e+07
2.45219e+06
3.14652e+06
3.22085e+06
3.22955e+06
3.23079e+06
3.23108e+06
3.23127e+06
3.23146e+06
3.23169e+06
3.23195e+06
3.23226e+06
3.23261e+06
3.23303e+06
3.23349e+06
3.23402e+06
3.23461e+06
3.23531e+06
3.23606e+06
3.23694e+06
3.23789e+06
3.23902e+06
3.24021e+06
3.24162e+06
3.24311e+06
3.24488e+06
3.24671e+06
3.2489e+06
3.25113e+06
3.25381e+06
3.2565e+06
3.25972e+06
3.26292e+06
3.26673e+06
3.27045e+06
3.27483e+06
3.27907e+06
3.28395e+06
3.28862e+06
3.29385e+06
3.29877e+06
3.30409e+06
3.30901e+06
3.31406e+06
3.31864e+06
3.32332e+06
3.32897e+06
3.34473e+06
3.44818e+06
4.48329e+06
1.79872e+07
495229
916762
1.02545e+06
1.04926e+06
1.05408e+06
1.05502e+06
1.05525e+06
1.05536e+06
1.05548e+06
1.05561e+06
1.05576e+06
1.05593e+06
1.05614e+06
1.05637e+06
1.05663e+06
1.05693e+06
1.05727e+06
1.05764e+06
1.05808e+06
1.05856e+06
1.05911e+06
1.05971e+06
1.06041e+06
1.06116e+06
1.06203e+06
1.06297e+06
1.06405e+06
1.0652e+06
1.06652e+06
1.06791e+06
1.06951e+06
1.07117e+06
1.07307e+06
1.07501e+06
1.07721e+06
1.07944e+06
1.08192e+06
1.08438e+06
1.08706e+06
1.08968e+06
1.09244e+06
1.09508e+06
1.09779e+06
1.1007e+06
1.1057e+06
1.12135e+06
1.18722e+06
1.49699e+06
3.23225e+06
1.79872e+07
123183
304506
382383
406874
413197
414613
414928
415036
415119
415209
415315
415437
415578
415737
415920
416126
416363
416627
416930
417266
417651
418075
418561
419093
419702
420364
421123
421939
422873
423868
425003
426200
427556
428970
430555
432187
433988
435813
437782
439742
441795
443813
446024
449282
458486
493774
626499
1.10085e+06
3.08897e+06
1.79872e+07
39704.1
110625
152227
169161
174448
175798
176106
176190
176238
176284
176339
176401
176473
176555
176650
176756
176878
177014
177171
177344
177544
177764
178016
178294
178612
178959
179356
179787
180279
180808
181412
182054
182782
183548
184409
185303
186294
187308
188408
189514
190683
191875
193400
196764
209394
259995
438232
998037
3.06611e+06
1.79872e+07
20559.4
56028.5
79709.7
91399.8
95598.4
96777.7
97054.4
97117.6
97140.5
97158.2
97178
97200.5
97226.9
97256.7
97291.3
97329.9
97374.7
97424.5
97482
97545.8
97619.4
97700.6
97794.1
97896.9
98015.3
98144.8
98293.9
98455.9
98642.2
98843.3
99073.8
99320.6
99602.2
99900.8
100239
100593
100989
101398
101846
102301
102793
103342
104305
107538
121661
179112
376772
968812
3.06033e+06
1.79872e+07
16254.3
42451.8
60617.2
70255.8
73987.5
75081.3
75341.2
75395
75407.6
75413.5
75419.2
75425.5
75433
75441.4
75451.3
75462.4
75475.3
75489.6
75506.3
75524.7
75546.2
75569.9
75597.5
75627.8
75663.1
75701.8
75746.8
75796
75853.1
75915.4
75987.4
76065.5
76155.6
76252.5
76363.7
76481.9
76616.1
76756.9
76913.9
77077
77262.1
77517.1
78218.7
81345.8
95893.6
155363
358684
959830
3.05768e+06
1.79872e+07
15352
39460.1
56314
65367.7
68972.1
70042.4
70297.3
70348.3
70357.7
70360
70361.4
70362.8
70364.6
70366.6
70369.1
70371.7
70375
70378.5
70382.8
70387.4
70393
70399.2
70406.6
70414.8
70424.6
70435.4
70448.3
70462.7
70479.9
70499.1
70521.8
70547.3
70577.4
70610.8
70650.3
70693.8
70744.7
70799.9
70863.7
70932.6
71018.9
71178.5
71789
74850.4
89391.2
149000
352936
955621
3.05524e+06
1.79872e+07
15185.2
38891.2
55463.5
64386.6
67968.6
69037
69291.6
69342
69350.7
69352.1
69352.5
69352.7
69353.1
69353.5
69354.2
69354.8
69355.7
69356.6
69357.8
69359.1
69360.9
69362.7
69365.2
69368
69371.5
69375.5
69380.6
69386.4
69393.8
69402.4
69413
69425.6
69441
69459.1
69481.1
69506.7
69537.5
69572.6
69614.6
69661.7
69726
69862.9
70445.2
73450.4
87819.7
146930
349961
952168
3.05257e+06
1.79872e+07
15160.4
38805.3
55315.8
64207.1
67789.8
68861.4
69116.9
69167.5
69176
69177.2
69177.4
69177.4
69177.5
69177.6
69177.9
69178.1
69178.5
69178.9
69179.5
69180.1
69181.1
69182.1
69183.6
69185.3
69187.5
69190.2
69193.7
69197.9
69203.4
69210
69218.4
69228.6
69241.4
69257.1
69276.3
69299.5
69327.9
69360.9
69401.5
69447.5
69512.1
69648.8
70220.2
73163.6
87275.1
145601
347109
948134
3.04917e+06
1.79872e+07
15158.9
38799.5
55291.1
64171
67757.9
68833.2
69089.9
69140.7
69149.2
69150.4
69150.5
69150.5
69150.6
69150.7
69150.8
69151
69151.3
69151.6
69152.1
69152.6
69153.4
69154.4
69155.7
69157.2
69159.3
69161.8
69165.1
69169.2
69174.4
69181
69189.2
69199.6
69212.5
69228.8
69248.7
69273.5
69303.6
69339.8
69384.4
69435.1
69507.9
69649.5
70214.9
73089.5
86896.1
144270
343882
943374
3.04514e+06
1.79872e+07
15159.9
38802.6
55284
64158.1
67749.2
68828
69085.9
69137
69145.5
69146.7
69146.8
69146.8
69146.9
69146.9
69147.1
69147.3
69147.5
69147.8
69148.3
69148.9
69149.7
69150.6
69151.9
69153.4
69155.5
69158.1
69161.4
69165.6
69170.9
69177.8
69186.4
69197.4
69211
69228.5
69249.8
69276.8
69309.8
69349.9
69399.8
69456.4
69538.9
69690
70249.6
73044.2
86472.7
142645
339842
937329
3.03996e+06
1.79872e+07
15160.6
38804.6
55278.9
64148.3
67743.9
68826.1
69085.1
69136.4
69145.1
69146.2
69146.4
69146.4
69146.4
69146.5
69146.6
69146.8
69147
69147.4
69147.8
69148.4
69149.2
69150.2
69151.4
69153.1
69155.1
69157.8
69161.2
69165.6
69171.2
69178.4
69187.3
69199.1
69213.5
69232.6
69255.6
69285.9
69322
69368.7
69424.6
69490
69592.4
69755.1
70306.6
72997.4
85944.2
140577
334631
929448
3.03324e+06
1.79872e+07
15160.8
38805
55275.9
64136
67738.2
68824.6
69084.6
69136.3
69144.9
69146.1
69146.2
69146.2
69146.3
69146.3
69146.5
69146.7
69146.9
69147.3
69147.7
69148.3
69149.1
69150.1
69151.4
69153.1
69155.2
69158
69161.5
69166
69171.8
69179.4
69188.9
69201.5
69217
69237.7
69262.9
69296.8
69337.3
69391.6
69456.1
69533.3
69649.7
69826.9
70362.5
72889.4
85083
137301
326307
916204
3.02038e+06
1.79872e+07
15160.5
38804.4
55275.6
64119.3
67730.8
68822.8
69083.9
69135.8
69144.5
69145.7
69145.8
69145.8
69145.9
69146
69146.1
69146.3
69146.5
69146.9
69147.3
69148
69148.7
69149.8
69151.1
69152.8
69155
69157.9
69161.5
69166.3
69172.3
69180.3
69190.3
69203.7
69220.4
69243
69270.6
69308.9
69353.7
69420.1
69486.6
69591.6
69736.5
69928
70408.1
72604.5
83330.5
130751
308547
879925
2.94816e+06
1.79872e+07
15160
38803.1
55276.3
64099.4
67721.4
68819.8
69082.1
69134.2
69142.9
69144.2
69144.2
69144.3
69144.3
69144.4
69144.5
69144.7
69145
69145.4
69145.8
69146.5
69147.2
69148.3
69149.6
69151.4
69153.7
69156.7
69160.4
69165.4
69171.7
69180.1
69190.9
69205.3
69223.6
69248.3
69279.1
69321.4
69372.6
69447.5
69526.5
69652.2
69793
69928.5
70242.2
71371.1
77056.3
105147
221586
608253
1.88907e+06
1.22538e+07
15159.2
38801.2
55275.8
64076.8
67708.2
68812.9
69076.4
69128.7
69137.5
69138.7
69138.8
69138.9
69138.9
69139
69139.1
69139.4
69139.6
69140
69140.5
69141.2
69141.9
69143.1
69144.4
69146.3
69148.6
69151.8
69155.6
69160.9
69167.5
69176.5
69188.2
69204
69224.8
69252.3
69287.2
69332.8
69392.2
69470.1
69574
69703.3
69873.7
70048.1
70351.7
71196.8
75300.7
97228.1
196291
555152
1.86163e+06
1.22998e+07
15158.2
38798
55272
64049.4
67686.2
68795.7
69060.2
69112.7
69121.5
69122.8
69122.9
69123
69123
69123.2
69123.3
69123.6
69123.8
69124.3
69124.7
69125.5
69126.3
69127.5
69128.9
69130.9
69133.3
69136.6
69140.7
69146.3
69153.4
69163.3
69176.7
69195.8
69221.6
69254.4
69294.9
69345.7
69412.6
69499.2
69619.9
69768.3
69964.1
70190.8
70550.8
71297.1
74415.9
91745.8
177173
515206
1.81032e+06
1.22544e+07
15156.8
38793.4
55262.9
64012.6
67645.5
68756.2
69021.2
69073.9
69082.8
69084.1
69084.2
69084.3
69084.4
69084.6
69084.7
69085
69085.3
69085.8
69086.3
69087.1
69088
69089.3
69090.8
69092.9
69095.4
69098.9
69103.2
69109.1
69117.1
69128.9
69146.6
69173.8
69211.3
69253.8
69302
69358.6
69434.4
69531.3
69671.6
69850.5
70074.6
70354.9
70808.8
71588.5
74055.8
90786
174395
523860
1.91097e+06
1.67852e+07
15155.2
38787.1
55248.2
63963.9
67576.6
68683
68947.9
69000.9
69009.9
69011.3
69011.4
69011.6
69011.6
69011.8
69011.9
69012.3
69012.6
69013.2
69013.7
69014.6
69015.4
69016.8
69018.3
69020.6
69023.1
69026.8
69031.3
69037.9
69047.6
69063.9
69092.6
69140.8
69197.9
69252.7
69308.8
69372.2
69455.9
69565.8
69724.9
69939
70199.9
70545
71114.6
72002.7
74093.6
86610.2
152480
454328
1.76341e+06
1.66131e+07
15153.4
38780
55229.7
63906.9
67483
68580.5
68845.3
68898.9
68908.1
68909.5
68909.6
68909.8
68909.8
68910
68910.2
68910.5
68910.8
68911.4
68911.9
68912.8
68913.6
68915
68916.5
68918.7
68921.3
68925
68929.9
68937.8
68951.4
68979
69034.6
69111.6
69187.4
69252.9
69315.8
69385.5
69477.4
69600.4
69779.6
70031.3
70331.4
70757.9
71469.2
72554.8
74619.8
84107.7
133781
388239
1.64128e+06
1.64792e+07
15151.8
38773.1
55210.7
63849.8
67382.3
68469.5
68734.7
68789
68798.4
68799.9
68800
68800.1
68800.1
68800.3
68800.4
68800.8
68801
68801.6
68802
68802.9
68803.7
68805
68806.4
68808.6
68811.1
68814.9
68820.7
68831.6
68854.8
68908.1
68994.9
69093.5
69181.8
69254.7
69322.5
69397.9
69496.8
69633
69831.3
70119.9
70462
70983.5
71860.5
73219.5
75559.8
83348.2
118657
316694
1.45598e+06
1.61541e+07
15150.5
38767.1
55194
63799.8
67291.7
68370
68635.7
68690.7
68700.3
68701.8
68701.9
68702
68702
68702.2
68702.3
68702.6
68702.8
68703.3
68703.7
68704.5
68705.2
68706.5
68707.8
68709.9
68712.4
68716.8
68724.7
68742.9
68786.4
68866.7
68973.2
69084.2
69179.7
69257.2
69328.7
69408.7
69514
69661.7
69877.6
70199.6
70579.1
71204.8
72258.2
73938.7
76783.6
84199.9
108265
237713
1.26781e+06
1.05351e+07
15149.4
38762.5
55181
63760.7
67220.1
68291.4
68557.7
68613.2
68623
68624.6
68624.7
68624.8
68624.8
68624.9
68625
68625.3
68625.4
68625.9
68626.3
68627
68627.7
68628.9
68630.1
68632.1
68634.9
68640.7
68653.6
68687.1
68752.3
68848.7
68965
69081.4
69179.8
69259.7
69333.3
69417.1
69527
69684.2
69913.7
70262.8
70673.6
71398.9
72616.9
74618.2
78062.6
86119.8
104321
176669
800458
8.46033e+06
15148.8
38759.6
55172.5
63733.9
67169.7
68236.3
68503
68559
68568.9
68570.5
68570.6
68570.7
68570.6
68570.8
68570.8
68571.1
68571.3
68571.7
68572
68572.7
68573.3
68574.5
68575.7
68577.8
68581.2
68589.5
68611.9
68659.8
68735.8
68839.3
68959.8
69079
69179.4
69261.1
69336.3
69422.5
69535.7
69698.8
69937.3
70304.2
70732.9
71541.4
72885.6
75141.4
79100.7
88114.7
105425
150073
308300
2.26341e+06
15148.6
38758.6
55169.6
63723.2
67146.7
68211
68478.1
68534.3
68544.3
68545.9
68546
68546.1
68546.1
68546.3
68546.3
68546.6
68546.7
68547.1
68547.4
68548.1
68548.7
68549.8
68551
68553.2
68557.2
68569.2
68598.2
68650.6
68729.3
68834.4
68956.1
69076.7
69178.4
69261.2
69337.1
69424.3
69538.4
69703.9
69945.2
70318.6
70749.2
71609.4
73014.6
75396
79617.1
89092.8
106888
145766
232482
461403
15148.8
38759.6
55172.5
63733.9
67169.7
68236.3
68503
68559
68568.9
68570.5
68570.6
68570.7
68570.6
68570.8
68570.8
68571.1
68571.3
68571.7
68572
68572.7
68573.3
68574.5
68575.7
68577.8
68581.2
68589.5
68611.7
68659.2
68734.9
68838.7
68959.6
69079
69179.5
69261.1
69336.3
69422.5
69535.7
69698.8
69937.3
70304.2
70717
71587
72972.2
75311.2
79443.1
88507.2
105942
147834
289045
1.68381e+06
15149.4
38762.5
55181
63760.7
67220.1
68291.4
68557.7
68613.2
68623
68624.6
68624.7
68624.8
68624.8
68624.9
68625
68625.3
68625.4
68625.9
68626.3
68627
68627.7
68628.9
68630.1
68632.1
68634.9
68640.6
68653.1
68684.9
68749.1
68847.3
68964.7
69081.6
69180
69259.9
69333.3
69417.1
69527
69684.2
69913.7
70262.8
70643.4
71479.7
72768.2
74909.7
78635.1
86671.6
104305
166818
542039
7.91613e+06
15150.5
38767.1
55194
63799.8
67291.7
68370
68635.7
68690.7
68700.3
68701.8
68701.9
68702
68702
68702.2
68702.3
68702.6
68702.8
68703.3
68703.7
68704.5
68705.2
68706.5
68707.8
68709.9
68712.4
68716.8
68724.5
68742.3
68785.8
68866.7
68973.6
69084.7
69180.1
69257.4
69328.7
69408.7
69514
69661.7
69877.6
70199.6
70538.2
71308.4
72448.6
74294.8
77440.5
84619.5
106639
219806
914506
1.03649e+07
15151.8
38773.1
55210.7
63849.8
67382.3
68469.5
68734.7
68789
68798.4
68799.9
68800
68800.1
68800.1
68800.3
68800.4
68800.8
68801
68801.6
68802
68802.9
68803.7
68805
68806.4
68808.6
68811.1
68814.9
68820.6
68831.5
68854.6
68908.2
68995.2
69093.8
69182
69254.9
69322.6
69397.9
69496.8
69633
69831.3
70119.9
70413.3
71097
72063.3
73581
76154.8
83425.2
115557
298054
1.38606e+06
1.57046e+07
15153.4
38780
55229.7
63906.9
67483
68580.5
68845.3
68898.9
68908.1
68909.5
68909.6
68909.8
68909.8
68910
68910.2
68910.5
68910.8
68911.4
68911.9
68912.8
68913.6
68915
68916.5
68918.7
68921.3
68925
68929.9
68937.7
68951.4
68979
69034.8
69111.8
69187.5
69253
69315.9
69385.5
69477.4
69600.4
69779.6
70031.3
70279.6
70869.1
71662.2
72878.3
75049.7
83765.5
129713
371463
1.60524e+06
1.64394e+07
15155.2
38787.1
55248.2
63963.9
67576.6
68683
68947.9
69000.9
69009.9
69011.3
69011.4
69011.6
69011.6
69011.8
69011.9
69012.3
69012.6
69013.2
69013.7
69014.6
69015.4
69016.8
69018.3
69020.6
69023.1
69026.8
69031.3
69037.9
69047.6
69063.9
69092.6
69140.9
69198
69252.8
69308.8
69372.2
69455.9
69565.8
69724.9
69939
70148.7
70646.3
71284.2
72262
74304.9
85846.4
147516
438060
1.73572e+06
1.659e+07
15156.8
38793.4
55262.9
64012.6
67645.5
68756.2
69021.2
69073.9
69082.8
69084.1
69084.2
69084.3
69084.4
69084.6
69084.7
69085
69085.3
69085.8
69086.3
69087.1
69088
69089.3
69090.8
69092.9
69095.4
69098.9
69103.2
69109.1
69117.1
69128.9
69146.6
69173.8
69211.4
69253.8
69302
69358.6
69434.4
69531.3
69671.6
69850.5
70028.1
70441.8
70951
71773.7
74006.5
89617.4
168719
505862
1.86256e+06
1.66969e+07
15158.2
38798
55272
64049.4
67686.2
68795.7
69060.2
69112.7
69121.5
69122.8
69122.9
69123
69123
69123.2
69123.3
69123.6
69123.8
69124.3
69124.7
69125.5
69126.3
69127.5
69128.9
69130.9
69133.3
69136.6
69140.7
69146.3
69153.4
69163.3
69176.8
69195.8
69221.6
69254.4
69295
69345.7
69412.6
69499.2
69619.9
69768.3
69927.8
70263.3
70668.2
71419.3
74198.1
89445.9
167539
489581
1.7477e+06
1.2e+07
15159.2
38801.2
55275.8
64076.8
67708.2
68812.9
69076.4
69128.7
69137.5
69138.7
69138.8
69138.9
69138.9
69139
69139.1
69139.4
69139.6
69140
69140.5
69141.2
69141.9
69143.1
69144.4
69146.3
69148.6
69151.8
69155.6
69160.9
69167.5
69176.5
69188.2
69204
69224.8
69252.3
69287.2
69332.8
69392.2
69470.1
69574
69703.3
69847.1
70110.5
70439.9
71218
74774.8
94269
186351
535338
1.83955e+06
1.22858e+07
15160
38803.1
55276.3
64099.4
67721.4
68819.8
69082.1
69134.2
69142.9
69144.2
69144.2
69144.3
69144.3
69144.4
69144.5
69144.7
69145
69145.4
69145.8
69146.5
69147.2
69148.3
69149.6
69151.4
69153.7
69156.7
69160.4
69165.4
69171.7
69180.1
69190.9
69205.3
69223.6
69248.3
69279.1
69321.4
69372.6
69447.5
69526.5
69652.2
69760.8
69977.4
70282
71241.7
76048.6
100782
207567
577311
1.88024e+06
1.23033e+07
15160.5
38804.4
55275.6
64119.3
67730.8
68822.8
69083.9
69135.8
69144.5
69145.7
69145.8
69145.8
69145.9
69146
69146.1
69146.3
69146.5
69146.9
69147.3
69148
69148.7
69149.8
69151.1
69152.8
69155
69157.9
69161.5
69166.3
69172.3
69180.3
69190.3
69203.7
69220.4
69243
69270.6
69308.9
69353.7
69420.1
69486.6
69591.6
69736.5
69928
70408.1
72604.5
83330.4
130751
308547
879925
2.94816e+06
1.79872e+07
15160.8
38805
55275.9
64136
67738.2
68824.6
69084.6
69136.3
69144.9
69146.1
69146.2
69146.2
69146.3
69146.3
69146.5
69146.7
69146.9
69147.3
69147.7
69148.3
69149.1
69150.1
69151.4
69153.1
69155.2
69158
69161.5
69166
69171.8
69179.4
69188.9
69201.5
69217
69237.7
69262.9
69296.8
69337.3
69391.6
69456.1
69533.3
69649.7
69826.9
70362.5
72889.3
85083
137301
326307
916204
3.02038e+06
1.79872e+07
15160.6
38804.6
55278.9
64148.3
67743.9
68826.1
69085.1
69136.4
69145.1
69146.2
69146.4
69146.4
69146.4
69146.5
69146.6
69146.8
69147
69147.4
69147.8
69148.4
69149.2
69150.2
69151.4
69153.1
69155.1
69157.8
69161.2
69165.6
69171.2
69178.4
69187.3
69199.1
69213.5
69232.6
69255.6
69285.9
69322
69368.7
69424.6
69490
69592.4
69755.1
70306.6
72997.4
85944.2
140577
334631
929447
3.03324e+06
1.79872e+07
15159.9
38802.6
55284
64158.1
67749.2
68828
69085.9
69137
69145.5
69146.7
69146.8
69146.8
69146.9
69146.9
69147.1
69147.3
69147.5
69147.8
69148.3
69148.9
69149.7
69150.6
69151.9
69153.4
69155.5
69158.1
69161.4
69165.6
69170.9
69177.8
69186.4
69197.4
69211
69228.5
69249.8
69276.8
69309.8
69349.9
69399.8
69456.4
69538.9
69690
70249.6
73044.2
86472.7
142645
339842
937329
3.03996e+06
1.79872e+07
15158.9
38799.5
55291.1
64171
67757.9
68833.2
69089.9
69140.7
69149.2
69150.4
69150.5
69150.5
69150.6
69150.7
69150.8
69151
69151.3
69151.6
69152.1
69152.6
69153.4
69154.4
69155.7
69157.2
69159.3
69161.8
69165.1
69169.2
69174.4
69181
69189.2
69199.6
69212.5
69228.8
69248.7
69273.5
69303.6
69339.8
69384.4
69435.1
69507.9
69649.5
70214.9
73089.5
86896.1
144270
343882
943374
3.04514e+06
1.79872e+07
15160.4
38805.3
55315.8
64207.1
67789.8
68861.4
69116.9
69167.5
69176
69177.2
69177.4
69177.4
69177.5
69177.6
69177.9
69178.1
69178.5
69178.9
69179.5
69180.1
69181.1
69182.1
69183.6
69185.3
69187.5
69190.2
69193.7
69197.9
69203.4
69210
69218.4
69228.6
69241.4
69257.1
69276.3
69299.5
69327.9
69360.9
69401.5
69447.5
69512.1
69648.8
70220.2
73163.6
87275.1
145601
347109
948134
3.04917e+06
1.79872e+07
15185.2
38891.2
55463.5
64386.6
67968.6
69037
69291.6
69342
69350.7
69352.1
69352.5
69352.7
69353.1
69353.5
69354.2
69354.8
69355.7
69356.6
69357.8
69359.1
69360.9
69362.7
69365.2
69368
69371.5
69375.5
69380.6
69386.5
69393.8
69402.4
69413
69425.6
69441
69459.1
69481.1
69506.7
69537.5
69572.6
69614.7
69661.7
69726
69862.9
70445.2
73450.4
87819.7
146930
349961
952168
3.05257e+06
1.79872e+07
15352
39460.1
56314
65367.7
68972.1
70042.4
70297.3
70348.3
70357.8
70360
70361.4
70362.8
70364.6
70366.6
70369.1
70371.7
70375
70378.5
70382.8
70387.4
70393.1
70399.2
70406.6
70414.8
70424.6
70435.4
70448.4
70462.8
70479.9
70499.1
70521.8
70547.3
70577.4
70610.9
70650.3
70693.8
70744.7
70799.9
70863.8
70932.6
71018.9
71178.5
71789
74850.4
89391.2
149000
352936
955621
3.05524e+06
1.79872e+07
16254.3
42451.9
60617.3
70255.8
73987.6
75081.3
75341.2
75395.1
75407.7
75413.5
75419.2
75425.5
75433
75441.4
75451.4
75462.4
75475.3
75489.6
75506.3
75524.7
75546.2
75569.9
75597.5
75627.9
75663.1
75701.8
75746.8
75796
75853.2
75915.4
75987.5
76065.6
76155.7
76252.6
76363.7
76482
76616.1
76757
76914
77077
77262.1
77517.1
78218.7
81345.8
95893.6
155363
358684
959830
3.05768e+06
1.79872e+07
20559.4
56028.5
79709.8
91399.8
95598.4
96777.7
97054.5
97117.7
97140.6
97158.3
97178.1
97200.6
97227
97256.8
97291.3
97330
97374.8
97424.6
97482.1
97545.9
97619.4
97700.6
97794.2
97897
98015.4
98144.9
98294
98456
98642.3
98843.3
99073.9
99320.7
99602.3
99900.9
100239
100593
100989
101398
101846
102301
102793
103342
104305
107538
121661
179112
376772
968812
3.06033e+06
1.79872e+07
39704.1
110625
152227
169161
174448
175798
176106
176190
176238
176285
176339
176401
176473
176555
176650
176756
176878
177014
177171
177344
177544
177764
178017
178294
178612
178959
179356
179787
180280
180809
181412
182054
182782
183548
184409
185303
186294
187308
188408
189514
190683
191875
193400
196764
209394
259995
438232
998037
3.06611e+06
1.79872e+07
123183
304506
382383
406874
413197
414613
414928
415036
415119
415210
415316
415437
415578
415737
415921
416127
416363
416627
416930
417266
417651
418075
418561
419093
419703
420364
421123
421939
422873
423869
425003
426201
427556
428970
430556
432187
433988
435813
437783
439742
441795
443813
446024
449282
458486
493774
626500
1.10085e+06
3.08897e+06
1.79872e+07
495229
916762
1.02545e+06
1.04926e+06
1.05408e+06
1.05502e+06
1.05525e+06
1.05536e+06
1.05548e+06
1.05561e+06
1.05576e+06
1.05593e+06
1.05614e+06
1.05637e+06
1.05663e+06
1.05693e+06
1.05727e+06
1.05764e+06
1.05808e+06
1.05856e+06
1.05911e+06
1.05971e+06
1.06041e+06
1.06116e+06
1.06203e+06
1.06297e+06
1.06405e+06
1.0652e+06
1.06652e+06
1.06791e+06
1.06951e+06
1.07117e+06
1.07307e+06
1.07501e+06
1.07721e+06
1.07944e+06
1.08192e+06
1.08438e+06
1.08706e+06
1.08968e+06
1.09244e+06
1.09508e+06
1.09779e+06
1.1007e+06
1.1057e+06
1.12135e+06
1.18722e+06
1.49699e+06
3.23225e+06
1.79872e+07
2.45219e+06
3.14652e+06
3.22085e+06
3.22955e+06
3.23079e+06
3.23108e+06
3.23127e+06
3.23146e+06
3.23169e+06
3.23195e+06
3.23226e+06
3.23261e+06
3.23303e+06
3.23349e+06
3.23402e+06
3.23461e+06
3.23531e+06
3.23606e+06
3.23694e+06
3.23789e+06
3.23902e+06
3.24021e+06
3.24162e+06
3.24311e+06
3.24488e+06
3.24671e+06
3.2489e+06
3.25113e+06
3.25381e+06
3.2565e+06
3.25972e+06
3.26292e+06
3.26673e+06
3.27045e+06
3.27483e+06
3.27907e+06
3.28395e+06
3.28862e+06
3.29385e+06
3.29877e+06
3.30409e+06
3.30901e+06
3.31406e+06
3.31864e+06
3.32332e+06
3.32897e+06
3.34473e+06
3.44818e+06
4.48329e+06
1.79872e+07
1.87595e+07
1.87595e+07
1.87595e+07
1.87595e+07
1.87595e+07
1.87595e+07
1.87595e+07
1.87595e+07
1.87595e+07
1.87595e+07
1.87595e+07
1.87595e+07
1.87595e+07
1.87595e+07
1.87595e+07
1.87595e+07
1.87595e+07
1.87595e+07
1.87595e+07
1.87595e+07
1.87595e+07
1.87595e+07
1.87595e+07
1.87595e+07
1.87595e+07
1.87595e+07
1.87595e+07
1.87595e+07
1.87595e+07
1.87595e+07
1.87595e+07
1.87595e+07
1.87595e+07
1.87595e+07
1.87595e+07
1.87595e+07
1.87595e+07
1.87595e+07
1.87595e+07
1.87595e+07
1.87595e+07
1.87595e+07
1.87595e+07
1.87595e+07
1.87595e+07
1.87595e+07
1.87595e+07
1.87595e+07
1.87595e+07
1.87595e+07
7.13935e+07
6.8456e+07
6.77588e+07
6.76773e+07
6.76672e+07
6.76661e+07
6.7666e+07
6.7666e+07
6.7666e+07
6.7666e+07
6.7666e+07
6.7666e+07
6.7666e+07
6.7666e+07
6.7666e+07
6.76658e+07
6.76645e+07
6.76541e+07
6.75712e+07
6.68133e+07
1.08103e+06
2.16297e+06
2.8606e+06
3.14358e+06
3.25191e+06
3.29481e+06
3.31227e+06
3.31947e+06
3.32245e+06
3.32368e+06
3.3242e+06
3.32441e+06
3.32449e+06
3.32453e+06
3.32454e+06
3.32454e+06
3.32446e+06
3.32384e+06
3.31918e+06
3.28937e+06
1.04491e+07
1.22211e+07
1.19773e+07
1.19406e+07
1.19433e+07
1.19476e+07
1.19499e+07
1.1951e+07
1.19514e+07
1.19516e+07
1.19517e+07
1.19517e+07
1.19517e+07
1.19517e+07
1.19517e+07
1.19516e+07
1.19506e+07
1.19425e+07
1.18799e+07
1.13874e+07
1.87595e+07
1.87595e+07
1.87595e+07
1.87595e+07
1.87595e+07
1.87595e+07
1.87595e+07
1.87595e+07
1.87595e+07
1.87595e+07
1.87595e+07
1.87595e+07
1.87595e+07
1.87595e+07
1.87595e+07
1.87595e+07
1.87595e+07
1.87595e+07
1.87595e+07
1.87595e+07
1.87595e+07
1.87595e+07
1.87595e+07
1.87595e+07
1.87595e+07
1.87595e+07
1.87595e+07
1.87595e+07
1.87595e+07
1.87595e+07
1.87595e+07
1.87595e+07
1.87595e+07
1.87595e+07
1.87595e+07
1.87595e+07
1.87595e+07
1.87595e+07
1.87595e+07
1.87595e+07
1.87595e+07
1.87595e+07
1.87595e+07
1.87595e+07
1.87595e+07
1.87595e+07
1.87595e+07
1.87595e+07
1.87595e+07
1.87595e+07
1.87595e+07
1.87595e+07
1.87595e+07
1.87595e+07
1.87595e+07
1.87595e+07
1.87595e+07
1.87595e+07
1.87595e+07
1.87595e+07
1.87595e+07
1.87595e+07
1.87595e+07
1.87595e+07
1.87595e+07
1.87595e+07
1.87595e+07
1.87595e+07
1.87595e+07
1.87595e+07
1.87595e+07
1.87595e+07
1.87595e+07
1.87595e+07
1.87595e+07
1.87595e+07
1.87595e+07
1.87595e+07
1.87595e+07
1.87595e+07
1.87595e+07
1.87595e+07
1.87595e+07
1.87595e+07
1.87595e+07
1.87595e+07
1.87595e+07
1.87595e+07
1.87595e+07
1.87595e+07
1.87595e+07
1.87595e+07
1.87595e+07
1.87595e+07
1.87595e+07
1.87595e+07
1.87595e+07
1.87595e+07
1.87595e+07
1.87595e+07
1.79872e+07
4.4802e+06
3.34414e+06
3.22127e+06
3.20389e+06
3.20149e+06
3.20205e+06
3.2033e+06
3.20477e+06
3.20632e+06
3.20788e+06
3.20944e+06
3.21098e+06
3.21246e+06
3.21389e+06
3.21524e+06
3.21652e+06
3.21771e+06
3.21882e+06
3.21984e+06
3.22078e+06
3.22164e+06
3.22242e+06
3.22314e+06
3.22378e+06
3.22436e+06
3.22488e+06
3.22535e+06
3.22577e+06
3.22615e+06
3.22648e+06
3.22678e+06
3.22705e+06
3.22728e+06
3.22749e+06
3.22768e+06
3.22785e+06
3.22799e+06
3.22813e+06
3.22824e+06
3.22835e+06
3.22843e+06
3.22853e+06
3.22857e+06
3.22867e+06
3.22869e+06
3.22879e+06
3.22877e+06
3.22889e+06
3.22883e+06
3.22896e+06
3.22887e+06
3.22902e+06
3.22891e+06
3.22905e+06
3.22895e+06
3.22908e+06
3.22899e+06
3.22909e+06
3.22902e+06
3.2291e+06
3.22904e+06
3.2291e+06
3.22906e+06
3.22911e+06
3.22908e+06
3.22911e+06
3.22909e+06
3.22911e+06
3.2291e+06
3.22912e+06
3.22911e+06
3.22912e+06
3.22911e+06
3.22912e+06
3.22912e+06
3.22912e+06
3.22912e+06
3.22912e+06
3.22912e+06
3.22912e+06
3.22912e+06
3.22913e+06
3.22913e+06
3.22913e+06
3.22913e+06
3.22913e+06
3.22913e+06
3.22913e+06
3.22913e+06
3.22913e+06
3.22913e+06
3.22913e+06
3.22913e+06
3.22913e+06
3.22913e+06
3.22913e+06
3.22913e+06
3.22913e+06
3.22913e+06
1.79872e+07
3.33843e+06
1.49638e+06
1.13504e+06
1.04633e+06
1.02438e+06
1.02046e+06
1.02107e+06
1.02273e+06
1.02468e+06
1.02668e+06
1.02868e+06
1.03065e+06
1.03256e+06
1.0344e+06
1.03614e+06
1.03779e+06
1.03933e+06
1.04077e+06
1.0421e+06
1.04332e+06
1.04443e+06
1.04545e+06
1.04638e+06
1.04721e+06
1.04797e+06
1.04865e+06
1.04926e+06
1.04981e+06
1.0503e+06
1.05074e+06
1.05113e+06
1.05148e+06
1.05179e+06
1.05207e+06
1.05231e+06
1.05253e+06
1.05272e+06
1.05289e+06
1.05304e+06
1.05318e+06
1.05329e+06
1.05341e+06
1.05348e+06
1.05359e+06
1.05363e+06
1.05374e+06
1.05375e+06
1.05386e+06
1.05383e+06
1.05396e+06
1.0539e+06
1.05403e+06
1.05395e+06
1.05408e+06
1.054e+06
1.05411e+06
1.05404e+06
1.05413e+06
1.05408e+06
1.05415e+06
1.05411e+06
1.05416e+06
1.05413e+06
1.05417e+06
1.05415e+06
1.05417e+06
1.05416e+06
1.05418e+06
1.05417e+06
1.05419e+06
1.05418e+06
1.05419e+06
1.05419e+06
1.05419e+06
1.05419e+06
1.0542e+06
1.05419e+06
1.0542e+06
1.0542e+06
1.0542e+06
1.0542e+06
1.0542e+06
1.0542e+06
1.0542e+06
1.0542e+06
1.0542e+06
1.0542e+06
1.0542e+06
1.0542e+06
1.0542e+06
1.0542e+06
1.0542e+06
1.05421e+06
1.05421e+06
1.05421e+06
1.05421e+06
1.05421e+06
1.05421e+06
1.05421e+06
1.79872e+07
3.22377e+06
1.1566e+06
627381
455442
402905
389994
388275
389106
390540
392104
393677
395229
396742
398200
399592
400909
402145
403298
404367
405352
406256
407081
407832
408513
409129
409683
410183
410630
411032
411390
411711
411996
412251
412477
412678
412856
413014
413155
413278
413391
413484
413579
413644
413729
413768
413851
413864
413948
413936
414024
413992
414080
414037
414120
414076
414147
414109
414167
414136
414181
414158
414192
414176
414201
414190
414207
414200
414213
414209
414217
414215
414221
414220
414224
414224
414227
414226
414228
414229
414230
414230
414231
414232
414232
414232
414233
414233
414234
414234
414234
414234
414235
414235
414235
414235
414235
414235
414235
414236
1.79872e+07
3.21226e+06
1.08471e+06
482012
261426
187838
167816
163703
163487
164028
164765
165526
166281
167019
167734
168419
169070
169683
170257
170790
171283
171736
172151
172529
172873
173184
173465
173718
173946
174150
174332
174495
174641
174770
174885
174988
175079
175160
175232
175295
175352
175400
175448
175482
175524
175546
175586
175595
175636
175632
175675
175661
175704
175685
175724
175704
175738
175721
175748
175735
175756
175746
175762
175755
175766
175762
175770
175767
175773
175771
175775
175775
175777
175777
175779
175779
175780
175780
175781
175781
175782
175782
175783
175783
175783
175783
175784
175784
175784
175784
175784
175784
175784
175784
175785
175785
175785
175785
175785
175785
1.79872e+07
3.21441e+06
1.07096e+06
444494
205257
122690
99289.7
93879.1
92964.9
92997.5
93201.8
93445.3
93692
93935.7
94173.6
94403.5
94623.5
94832.2
95028.7
95212.4
95383
95540.6
95685.5
95818.1
95938.9
96048.7
96148
96237.7
96318.3
96390.9
96455.8
96514.1
96565.9
96612.3
96653.5
96690.3
96722.8
96751.8
96777.6
96800.3
96820.8
96838.2
96855
96867.7
96882.4
96890.7
96904.8
96908.4
96923
96921.8
96937.1
96932
96947.4
96940.4
96954.6
96947.5
96959.6
96953.6
96963.2
96958.6
96966
96962.6
96968.1
96965.8
96969.8
96968.3
96971.1
96970.2
96972.2
96971.7
96973.1
96972.8
96973.8
96973.7
96974.4
96974.4
96974.8
96974.9
96975.2
96975.3
96975.5
96975.6
96975.7
96975.8
96975.9
96976
96976.1
96976.1
96976.2
96976.2
96976.3
96976.3
96976.3
96976.4
96976.4
96976.4
96976.5
96976.5
96976.5
96976.5
1.79872e+07
3.21983e+06
1.07059e+06
437702
192563
106653
81851.7
75874
74665.9
74478.5
74483
74519.1
74564.3
74611.7
74660.4
74709.4
74758.1
74805.8
74851.9
74896.1
74937.9
74977.3
75014
75048
75079.4
75108.2
75134.5
75158.5
75180.1
75199.8
75217.4
75233.3
75247.5
75260.2
75271.6
75281.8
75290.8
75298.9
75306
75312.3
75318
75322.9
75327.6
75331.2
75335.2
75337.6
75341.5
75342.6
75346.7
75346.3
75350.7
75349.2
75353.7
75351.5
75355.6
75353.6
75357
75355.3
75358
75356.7
75358.8
75357.8
75359.4
75358.7
75359.8
75359.4
75360.2
75360
75360.5
75360.4
75360.8
75360.7
75361
75361
75361.1
75361.1
75361.3
75361.3
75361.4
75361.4
75361.5
75361.5
75361.5
75361.6
75361.6
75361.6
75361.6
75361.6
75361.7
75361.7
75361.7
75361.7
75361.7
75361.7
75361.7
75361.7
75361.7
75361.8
75361.8
75361.8
1.79872e+07
3.227e+06
1.07389e+06
438737
191199
103771
78254.3
71998.1
70671.8
70409.1
70346.7
70320.4
70303
70290.1
70280.8
70274.7
70271.4
70270.3
70270.9
70272.9
70276
70279.7
70283.8
70288.2
70292.7
70297.1
70301.5
70305.6
70309.5
70313.2
70316.6
70319.7
70322.6
70325.2
70327.6
70329.7
70331.6
70333.4
70334.9
70336.3
70337.6
70338.7
70339.7
70340.6
70341.4
70342
70342.9
70343.2
70344.1
70344
70345.1
70344.6
70345.7
70345.2
70346.2
70345.6
70346.5
70346
70346.7
70346.4
70346.8
70346.6
70347
70346.8
70347.1
70347
70347.2
70347.1
70347.3
70347.2
70347.3
70347.3
70347.4
70347.4
70347.4
70347.4
70347.4
70347.4
70347.4
70347.5
70347.5