/*--------------------------------*- C++ -*----------------------------------*\
| =========                 |                                                 |
| \\      /  F ield         | foam-extend: Open Source CFD                    |
|  \\    /   O peration     | Version:     4.0                                |
|   \\  /    A nd           | Web:         http://www.foam-extend.org         |
|    \\/     M anipulation  |                                                 |
\*---------------------------------------------------------------------------*/
FoamFile
{
    version     2.0;
    format      ascii;
    class       volScalarField;
    location    "2.00098e-05";
    object      pd;
}
// * * * * * * * * * * * * * * * * * * * * * * * * * * * * * * * * * * * * * //

dimensions      [1 -1 -2 0 0 0 0];

internalField   nonuniform List<scalar> 
28770
(
1.11498e+07
1.04955e+07
1.17937e+07
9.87206e+06
1.2387e+07
9.31762e+06
1.28946e+07
8.86333e+06
1.32901e+07
8.53056e+06
1.35574e+07
8.32943e+06
1.36923e+07
8.25872e+06
1.37012e+07
8.30714e+06
1.35997e+07
8.45564e+06
1.34095e+07
8.68019e+06
1.3156e+07
8.95487e+06
1.28651e+07
9.25448e+06
1.25605e+07
9.55681e+06
1.22625e+07
9.84393e+06
1.19864e+07
1.0103e+07
1.17425e+07
1.03262e+07
1.15362e+07
1.05102e+07
1.1369e+07
1.06556e+07
1.1239e+07
1.07656e+07
1.11424e+07
1.0845e+07
1.10741e+07
1.08994e+07
1.10287e+07
1.09344e+07
1.10007e+07
1.09551e+07
1.09851e+07
1.09662e+07
1.0977e+07
1.09721e+07
1.11496e+07
1.04953e+07
1.17935e+07
9.87189e+06
1.23867e+07
9.31742e+06
1.28942e+07
8.86307e+06
1.32895e+07
8.53023e+06
1.35566e+07
8.32903e+06
1.36912e+07
8.25826e+06
1.36997e+07
8.30664e+06
1.35976e+07
8.45513e+06
1.34068e+07
8.67974e+06
1.31527e+07
8.95452e+06
1.28611e+07
9.25431e+06
1.25561e+07
9.55685e+06
1.2258e+07
9.84421e+06
1.19824e+07
1.01035e+07
1.17397e+07
1.0327e+07
1.15355e+07
1.05115e+07
1.13711e+07
1.06576e+07
1.12444e+07
1.07686e+07
1.11508e+07
1.08493e+07
1.10846e+07
1.09049e+07
1.104e+07
1.09407e+07
1.10115e+07
1.09618e+07
1.09947e+07
1.09731e+07
1.09853e+07
1.09795e+07
1.115e+07
1.04957e+07
1.17939e+07
9.87235e+06
1.23872e+07
9.31802e+06
1.28949e+07
8.86386e+06
1.32903e+07
8.53127e+06
1.35578e+07
8.33036e+06
1.36929e+07
8.25989e+06
1.37021e+07
8.30857e+06
1.36008e+07
8.45731e+06
1.3411e+07
8.68206e+06
1.31579e+07
8.95687e+06
1.28674e+07
9.25652e+06
1.25631e+07
9.55874e+06
1.2265e+07
9.84561e+06
1.19885e+07
1.01042e+07
1.17435e+07
1.03266e+07
1.15354e+07
1.05095e+07
1.13656e+07
1.06534e+07
1.12326e+07
1.07615e+07
1.1133e+07
1.08389e+07
1.10624e+07
1.08916e+07
1.10159e+07
1.09254e+07
1.09882e+07
1.09456e+07
1.09735e+07
1.09566e+07
1.09665e+07
1.09623e+07
1.11495e+07
1.04952e+07
1.17932e+07
9.87184e+06
1.23863e+07
9.31741e+06
1.28937e+07
8.8631e+06
1.32886e+07
8.53032e+06
1.35554e+07
8.32919e+06
1.36895e+07
8.25854e+06
1.36974e+07
8.3071e+06
1.35946e+07
8.45583e+06
1.34031e+07
8.68075e+06
1.31481e+07
8.95591e+06
1.28558e+07
9.25609e+06
1.25502e+07
9.55898e+06
1.22521e+07
9.84659e+06
1.19772e+07
1.0106e+07
1.17363e+07
1.03295e+07
1.15351e+07
1.0514e+07
1.13748e+07
1.06606e+07
1.12528e+07
1.07728e+07
1.11638e+07
1.08555e+07
1.11012e+07
1.09137e+07
1.10581e+07
1.09516e+07
1.10296e+07
1.09741e+07
1.10116e+07
1.09863e+07
1.10008e+07
1.09937e+07
1.11501e+07
1.0496e+07
1.1794e+07
9.87274e+06
1.23872e+07
9.31858e+06
1.28949e+07
8.86465e+06
1.32904e+07
8.53234e+06
1.35578e+07
8.33177e+06
1.36929e+07
8.26171e+06
1.37021e+07
8.31085e+06
1.36009e+07
8.46005e+06
1.34112e+07
8.68525e+06
1.31583e+07
8.96043e+06
1.28678e+07
9.26032e+06
1.25634e+07
9.56256e+06
1.22651e+07
9.84913e+06
1.19878e+07
1.0107e+07
1.17415e+07
1.0328e+07
1.15313e+07
1.05089e+07
1.13585e+07
1.06497e+07
1.12214e+07
1.0754e+07
1.11173e+07
1.08271e+07
1.10426e+07
1.08758e+07
1.09936e+07
1.09067e+07
1.0965e+07
1.09252e+07
1.09505e+07
1.09352e+07
1.09439e+07
1.09403e+07
1.11493e+07
1.04952e+07
1.1793e+07
9.87191e+06
1.23859e+07
9.31758e+06
1.28929e+07
8.86341e+06
1.32876e+07
8.53079e+06
1.35539e+07
8.32989e+06
1.36874e+07
8.25954e+06
1.36946e+07
8.3085e+06
1.3591e+07
8.45773e+06
1.33984e+07
8.68323e+06
1.31425e+07
8.95903e+06
1.28493e+07
9.25984e+06
1.25433e+07
9.56326e+06
1.22453e+07
9.85119e+06
1.19716e+07
1.01107e+07
1.17333e+07
1.0334e+07
1.15364e+07
1.05184e+07
1.13823e+07
1.06655e+07
1.12679e+07
1.07799e+07
1.11868e+07
1.08671e+07
1.11306e+07
1.09313e+07
1.10913e+07
1.09746e+07
1.10638e+07
1.10008e+07
1.10453e+07
1.10156e+07
1.10333e+07
1.10247e+07
1.11503e+07
1.04963e+07
1.1794e+07
9.87321e+06
1.23872e+07
9.31927e+06
1.28947e+07
8.86564e+06
1.32901e+07
8.53371e+06
1.35574e+07
8.33361e+06
1.36924e+07
8.2641e+06
1.37014e+07
8.31386e+06
1.36e+07
8.46375e+06
1.34101e+07
8.68963e+06
1.31569e+07
8.96543e+06
1.28661e+07
9.26578e+06
1.25614e+07
9.56821e+06
1.22624e+07
9.85451e+06
1.19841e+07
1.01114e+07
1.1736e+07
1.03305e+07
1.1523e+07
1.05079e+07
1.13459e+07
1.06437e+07
1.12027e+07
1.0741e+07
1.10907e+07
1.08058e+07
1.1008e+07
1.08462e+07
1.09535e+07
1.08707e+07
1.09218e+07
1.08847e+07
1.09059e+07
1.0892e+07
1.08989e+07
1.08956e+07
1.11492e+07
1.04952e+07
1.17927e+07
9.87209e+06
1.23853e+07
9.31793e+06
1.28921e+07
8.86397e+06
1.32864e+07
8.53163e+06
1.35522e+07
8.33109e+06
1.3685e+07
8.26121e+06
1.36914e+07
8.31077e+06
1.35868e+07
8.46073e+06
1.33931e+07
8.68709e+06
1.31361e+07
8.96382e+06
1.28419e+07
9.26554e+06
1.25354e+07
9.56972e+06
1.22377e+07
9.85811e+06
1.19655e+07
1.01176e+07
1.17307e+07
1.03405e+07
1.15398e+07
1.05246e+07
1.13945e+07
1.06725e+07
1.12917e+07
1.07905e+07
1.12239e+07
1.08865e+07
1.11797e+07
1.09642e+07
1.11473e+07
1.10186e+07
1.1123e+07
1.10523e+07
1.11058e+07
1.10719e+07
1.10938e+07
1.10839e+07
1.11505e+07
1.04966e+07
1.1794e+07
9.87374e+06
1.2387e+07
9.32008e+06
1.28944e+07
8.86679e+06
1.32895e+07
8.53531e+06
1.35566e+07
8.33577e+06
1.36913e+07
8.26694e+06
1.37e+07
8.31749e+06
1.35982e+07
8.46825e+06
1.34078e+07
8.69505e+06
1.3154e+07
8.97174e+06
1.28626e+07
9.27284e+06
1.2557e+07
9.57573e+06
1.22569e+07
9.86194e+06
1.19772e+07
1.01178e+07
1.1727e+07
1.03345e+07
1.15106e+07
1.05075e+07
1.1328e+07
1.06357e+07
1.11759e+07
1.07219e+07
1.10506e+07
1.07721e+07
1.09522e+07
1.07968e+07
1.08869e+07
1.0809e+07
1.08489e+07
1.0814e+07
1.08286e+07
1.08152e+07
1.0819e+07
1.08157e+07
1.11491e+07
1.04953e+07
1.17923e+07
9.87236e+06
1.23848e+07
9.31843e+06
1.28912e+07
8.86474e+06
1.3285e+07
8.53276e+06
1.35503e+07
8.3327e+06
1.36824e+07
8.26344e+06
1.36879e+07
8.31378e+06
1.35822e+07
8.4647e+06
1.33874e+07
8.69218e+06
1.31291e+07
8.97012e+06
1.28339e+07
9.27307e+06
1.25266e+07
9.57832e+06
1.22291e+07
9.86739e+06
1.19586e+07
1.0127e+07
1.17276e+07
1.03493e+07
1.15438e+07
1.05323e+07
1.14099e+07
1.06801e+07
1.13238e+07
1.08025e+07
1.12774e+07
1.09136e+07
1.12547e+07
1.10204e+07
1.12336e+07
1.10948e+07
1.12158e+07
1.11414e+07
1.1204e+07
1.11692e+07
1.11954e+07
1.11855e+07
1.11506e+07
1.04969e+07
1.1794e+07
9.87431e+06
1.23868e+07
9.32094e+06
1.28939e+07
8.86805e+06
1.32888e+07
8.53707e+06
1.35556e+07
8.33815e+06
1.36898e+07
8.2701e+06
1.36979e+07
8.32157e+06
1.35955e+07
8.47339e+06
1.34043e+07
8.70134e+06
1.31497e+07
8.97922e+06
1.28572e+07
9.28144e+06
1.25504e+07
9.5852e+06
1.2249e+07
9.8718e+06
1.19675e+07
1.01271e+07
1.17152e+07
1.03416e+07
1.14956e+07
1.05096e+07
1.13074e+07
1.06284e+07
1.11443e+07
1.06986e+07
1.09979e+07
1.0725e+07
1.08676e+07
1.07209e+07
1.07851e+07
1.07127e+07
1.07364e+07
1.07015e+07
1.07058e+07
1.06901e+07
1.06886e+07
1.0684e+07
1.1149e+07
1.04954e+07
1.1792e+07
9.87271e+06
1.23842e+07
9.31903e+06
1.28903e+07
8.86567e+06
1.32837e+07
8.53412e+06
1.35483e+07
8.33462e+06
1.36797e+07
8.26609e+06
1.36842e+07
8.31736e+06
1.35774e+07
8.46942e+06
1.33813e+07
8.69825e+06
1.31217e+07
8.97771e+06
1.28251e+07
9.28224e+06
1.25169e+07
9.58895e+06
1.22191e+07
9.87913e+06
1.19496e+07
1.01391e+07
1.17218e+07
1.03606e+07
1.15447e+07
1.05412e+07
1.14231e+07
1.06857e+07
1.13581e+07
1.08084e+07
1.13447e+07
1.0939e+07
1.13635e+07
1.11144e+07
1.13555e+07
1.12185e+07
1.13482e+07
1.12834e+07
1.13516e+07
1.13253e+07
1.13551e+07
1.13486e+07
1.11507e+07
1.04972e+07
1.17939e+07
9.87488e+06
1.23865e+07
9.32183e+06
1.28934e+07
8.86934e+06
1.32879e+07
8.53888e+06
1.35543e+07
8.34065e+06
1.36879e+07
8.27343e+06
1.36954e+07
8.32593e+06
1.35922e+07
8.47895e+06
1.34e+07
8.70828e+06
1.31442e+07
8.98765e+06
1.28503e+07
9.29144e+06
1.2542e+07
9.5967e+06
1.22389e+07
9.8845e+06
1.19558e+07
1.01403e+07
1.17018e+07
1.03539e+07
1.14807e+07
1.0518e+07
1.12897e+07
1.06276e+07
1.11182e+07
1.06786e+07
1.09435e+07
1.0669e+07
1.07405e+07
1.06095e+07
1.06387e+07
1.05739e+07
1.0576e+07
1.05345e+07
1.0522e+07
1.04969e+07
1.04852e+07
1.0476e+07
1.1149e+07
1.04956e+07
1.17918e+07
9.8731e+06
1.23837e+07
9.31969e+06
1.28894e+07
8.86668e+06
1.32823e+07
8.53559e+06
1.35464e+07
8.33671e+06
1.3677e+07
8.26899e+06
1.36806e+07
8.32128e+06
1.35726e+07
8.47462e+06
1.33751e+07
8.70499e+06
1.3114e+07
8.98623e+06
1.28159e+07
9.29273e+06
1.25062e+07
9.60147e+06
1.22072e+07
9.89346e+06
1.19372e+07
1.01545e+07
1.17102e+07
1.03756e+07
1.15367e+07
1.05526e+07
1.14242e+07
1.06874e+07
1.13796e+07
1.07931e+07
1.1411e+07
1.09202e+07
1.15249e+07
1.12879e+07
1.15117e+07
1.14076e+07
1.15189e+07
1.14951e+07
1.15631e+07
1.15644e+07
1.15988e+07
1.16029e+07
1.11508e+07
1.04975e+07
1.17938e+07
9.87543e+06
1.23861e+07
9.32269e+06
1.28928e+07
8.8706e+06
1.3287e+07
8.54068e+06
1.35528e+07
8.34312e+06
1.36859e+07
8.27678e+06
1.36927e+07
8.33035e+06
1.35884e+07
8.48468e+06
1.33951e+07
8.71556e+06
1.31379e+07
8.99673e+06
1.28424e+07
9.30256e+06
1.25323e+07
9.61007e+06
1.22274e+07
9.90026e+06
1.19426e+07
1.01584e+07
1.16877e+07
1.03738e+07
1.14676e+07
1.05382e+07
1.12814e+07
1.06437e+07
1.11184e+07
1.06794e+07
1.09331e+07
1.06252e+07
1.05253e+07
1.04401e+07
1.04427e+07
1.0393e+07
1.037e+07
1.03025e+07
1.02586e+07
1.02074e+07
1.01729e+07
1.01503e+07
1.11489e+07
1.04958e+07
1.17915e+07
9.87349e+06
1.23832e+07
9.32036e+06
1.28886e+07
8.8677e+06
1.32811e+07
8.53709e+06
1.35446e+07
8.33883e+06
1.36745e+07
8.27193e+06
1.36771e+07
8.32529e+06
1.3568e+07
8.47997e+06
1.33691e+07
8.712e+06
1.31063e+07
8.99525e+06
1.28063e+07
9.3041e+06
1.24944e+07
9.6155e+06
1.21929e+07
9.91037e+06
1.19202e+07
1.01742e+07
1.16903e+07
1.03971e+07
1.15138e+07
1.05723e+07
1.13996e+07
1.06937e+07
1.13589e+07
1.07466e+07
1.14168e+07
1.06755e+07
1.07293e+07
1.20485e+07
1.20403e+07
1.19869e+07
1.19345e+07
1.1863e+07
1.1788e+07
1.17107e+07
1.16448e+07
1.15778e+07
1.11509e+07
1.04978e+07
1.17936e+07
9.87593e+06
1.23858e+07
9.32348e+06
1.28921e+07
8.87178e+06
1.3286e+07
8.54236e+06
1.35514e+07
8.34546e+06
1.36839e+07
8.27996e+06
1.36898e+07
8.33461e+06
1.35846e+07
8.49028e+06
1.33901e+07
8.72281e+06
1.31313e+07
9.006e+06
1.28341e+07
9.31428e+06
1.25219e+07
9.62478e+06
1.22148e+07
9.91868e+06
1.19279e+07
1.01815e+07
1.16719e+07
1.04029e+07
1.14539e+07
1.05749e+07
1.12801e+07
1.06893e+07
1.11643e+07
1.07328e+07
1.11563e+07
1.06758e+07
1.04878e+07
1.20427e+07
1.2017e+07
1.19737e+07
1.19341e+07
1.19062e+07
1.18529e+07
1.18047e+07
1.17708e+07
1.17347e+07
1.11489e+07
1.04959e+07
1.17913e+07
9.87387e+06
1.23827e+07
9.32099e+06
1.28879e+07
8.86867e+06
1.328e+07
8.5385e+06
1.35429e+07
8.34084e+06
1.36722e+07
8.27472e+06
1.3674e+07
8.3291e+06
1.35638e+07
8.48511e+06
1.33635e+07
8.71881e+06
1.3099e+07
9.00416e+06
1.27968e+07
9.31564e+06
1.24822e+07
9.63032e+06
1.21771e+07
9.92928e+06
1.18993e+07
1.01983e+07
1.1662e+07
1.04275e+07
1.14742e+07
1.06107e+07
1.13418e+07
1.07422e+07
1.12693e+07
1.08115e+07
1.12619e+07
1.07957e+07
1.03494e+07
1.19946e+07
1.19533e+07
1.19086e+07
1.18902e+07
1.19645e+07
1.19301e+07
1.19266e+07
1.196e+07
1.19894e+07
1.11509e+07
1.0498e+07
1.17935e+07
9.87637e+06
1.23855e+07
9.32418e+06
1.28916e+07
8.87281e+06
1.32851e+07
8.54383e+06
1.35501e+07
8.34753e+06
1.3682e+07
8.2828e+06
1.36872e+07
8.33845e+06
1.35811e+07
8.4954e+06
1.33853e+07
8.72956e+06
1.3125e+07
9.01482e+06
1.28259e+07
9.32575e+06
1.25116e+07
9.63976e+06
1.22018e+07
9.93842e+06
1.19119e+07
1.02081e+07
1.16525e+07
1.04396e+07
1.14308e+07
1.06275e+07
1.12531e+07
1.0768e+07
1.11301e+07
1.08568e+07
1.10863e+07
1.08855e+07
1.02464e+07
1.1893e+07
1.1833e+07
1.17682e+07
1.17241e+07
1.06194e+07
1.05247e+07
1.04442e+07
1.03586e+07
1.03077e+07
1.11489e+07
1.04961e+07
1.17911e+07
9.8742e+06
1.23823e+07
9.32154e+06
1.28872e+07
8.8695e+06
1.3279e+07
8.53972e+06
1.35416e+07
8.34257e+06
1.36703e+07
8.27714e+06
1.36714e+07
8.33244e+06
1.35602e+07
8.48964e+06
1.33587e+07
8.7249e+06
1.30926e+07
9.01227e+06
1.27882e+07
9.3264e+06
1.24705e+07
9.64464e+06
1.21611e+07
9.94851e+06
1.18767e+07
1.02245e+07
1.16291e+07
1.04644e+07
1.14245e+07
1.06643e+07
1.12639e+07
1.08242e+07
1.11437e+07
1.09451e+07
1.10565e+07
1.10267e+07
1.01954e+07
1.17427e+07
1.16565e+07
1.15562e+07
1.14519e+07
1.06598e+07
1.06192e+07
1.04214e+07
1.01042e+07
9.8359e+06
1.1151e+07
1.04982e+07
1.17934e+07
9.87672e+06
1.23852e+07
9.32473e+06
1.28911e+07
8.87363e+06
1.32844e+07
8.54502e+06
1.3549e+07
8.3492e+06
1.36805e+07
8.28513e+06
1.3685e+07
8.34162e+06
1.3578e+07
8.49968e+06
1.33812e+07
8.73528e+06
1.31196e+07
9.02243e+06
1.28187e+07
9.33589e+06
1.25022e+07
9.6534e+06
1.21897e+07
9.95714e+06
1.1896e+07
1.02345e+07
1.16309e+07
1.04784e+07
1.13998e+07
1.06869e+07
1.12042e+07
1.08631e+07
1.10441e+07
1.10145e+07
1.09174e+07
1.11526e+07
1.01689e+07
1.15481e+07
1.14353e+07
1.12983e+07
1.11473e+07
1.07505e+07
1.06838e+07
1.02842e+07
9.55835e+06
8.95826e+06
1.11489e+07
1.04962e+07
1.1791e+07
9.87445e+06
1.23821e+07
9.32196e+06
1.28868e+07
8.87015e+06
1.32783e+07
8.54066e+06
1.35406e+07
8.34392e+06
1.36688e+07
8.27903e+06
1.36693e+07
8.33505e+06
1.35574e+07
8.4932e+06
1.33549e+07
8.72973e+06
1.30874e+07
9.01881e+06
1.27812e+07
9.33527e+06
1.24607e+07
9.65678e+06
1.21471e+07
9.96542e+06
1.18563e+07
1.02488e+07
1.15981e+07
1.05003e+07
1.13759e+07
1.07201e+07
1.11855e+07
1.09148e+07
1.10146e+07
1.10983e+07
1.08419e+07
1.12932e+07
1.0177e+07
1.1323e+07
1.11827e+07
1.10071e+07
1.08069e+07
1.09286e+07
1.0893e+07
1.03706e+07
8.70922e+06
7.54147e+06
1.1151e+07
1.04984e+07
1.17933e+07
9.87696e+06
1.2385e+07
9.32512e+06
1.28908e+07
8.87421e+06
1.32839e+07
8.54586e+06
1.35482e+07
8.35039e+06
1.36793e+07
8.28678e+06
1.36834e+07
8.34389e+06
1.35758e+07
8.50277e+06
1.33781e+07
8.73945e+06
1.31155e+07
9.02806e+06
1.28133e+07
9.34353e+06
1.24951e+07
9.66391e+06
1.21801e+07
9.97194e+06
1.18827e+07
1.02561e+07
1.16117e+07
1.05112e+07
1.13697e+07
1.0739e+07
1.11531e+07
1.09492e+07
1.09504e+07
1.11619e+07
1.07381e+07
1.14113e+07
1.02139e+07
1.10808e+07
1.0914e+07
1.06949e+07
1.04249e+07
1.12012e+07
1.13684e+07
1.14516e+07
9.1544e+06
1.31314e+07
1.11489e+07
1.04963e+07
1.17909e+07
9.87461e+06
1.23819e+07
9.32223e+06
1.28865e+07
8.87055e+06
1.32779e+07
8.54125e+06
1.35399e+07
8.34477e+06
1.36679e+07
8.28023e+06
1.36681e+07
8.33671e+06
1.35557e+07
8.49549e+06
1.33525e+07
8.73286e+06
1.30841e+07
9.02309e+06
1.27765e+07
9.34115e+06
1.24542e+07
9.66498e+06
1.21376e+07
9.97713e+06
1.18419e+07
1.0266e+07
1.15758e+07
1.05267e+07
1.13403e+07
1.07623e+07
1.11271e+07
1.09852e+07
1.09165e+07
1.12207e+07
1.06726e+07
1.15135e+07
1.02878e+07
1.08399e+07
1.06507e+07
1.03874e+07
1.00309e+07
1.15113e+07
1.19292e+07
1.24637e+07
9.70189e+06
1.24572e+07
1.1151e+07
1.04985e+07
1.17933e+07
9.87711e+06
1.2385e+07
9.32535e+06
1.28907e+07
8.87456e+06
1.32837e+07
8.54635e+06
1.35479e+07
8.35108e+06
1.36788e+07
8.28772e+06
1.36827e+07
8.34517e+06
1.35748e+07
8.50449e+06
1.33768e+07
8.74176e+06
1.31136e+07
9.03116e+06
1.28108e+07
9.34774e+06
1.24915e+07
9.66973e+06
1.21751e+07
9.98023e+06
1.18754e+07
1.02684e+07
1.16005e+07
1.05302e+07
1.13512e+07
1.07697e+07
1.11206e+07
1.10011e+07
1.089e+07
1.12528e+07
1.06224e+07
1.15767e+07
1.04007e+07
1.06233e+07
1.04222e+07
1.01279e+07
9.6986e+06
1.17848e+07
1.24157e+07
1.33891e+07
9.87824e+06
9.41225e+06
1.11489e+07
1.04963e+07
1.17909e+07
9.87464e+06
1.23818e+07
9.32229e+06
1.28864e+07
8.87065e+06
1.32777e+07
8.54141e+06
1.35396e+07
8.345e+06
1.36675e+07
8.28057e+06
1.36675e+07
8.33721e+06
1.35548e+07
8.49622e+06
1.33514e+07
8.73389e+06
1.30826e+07
9.02455e+06
1.27745e+07
9.34322e+06
1.24514e+07
9.66793e+06
1.21337e+07
9.98142e+06
1.18362e+07
1.02724e+07
1.15672e+07
1.05367e+07
1.13267e+07
1.07785e+07
1.11049e+07
1.10125e+07
1.08788e+07
1.12688e+07
1.06065e+07
1.1602e+07
1.0561e+07
1.04338e+07
1.02418e+07
9.95082e+06
9.5049e+06
1.19563e+07
1.2664e+07
1.3847e+07
8.26648e+06
7.04975e+06
1.1151e+07
1.04985e+07
1.17933e+07
9.87711e+06
1.2385e+07
9.32535e+06
1.28907e+07
8.87456e+06
1.32837e+07
8.54635e+06
1.35479e+07
8.35108e+06
1.36788e+07
8.28772e+06
1.36827e+07
8.34517e+06
1.35748e+07
8.50449e+06
1.33768e+07
8.74176e+06
1.31136e+07
9.03116e+06
1.28108e+07
9.34774e+06
1.24915e+07
9.66973e+06
1.21751e+07
9.98023e+06
1.18754e+07
1.02684e+07
1.16005e+07
1.05302e+07
1.13512e+07
1.07697e+07
1.11206e+07
1.10011e+07
1.089e+07
1.12528e+07
1.06224e+07
1.15767e+07
1.07588e+07
1.0295e+07
1.01361e+07
9.89119e+06
9.50725e+06
1.19831e+07
1.25828e+07
1.35998e+07
7.47435e+06
6.28484e+06
1.11489e+07
1.04963e+07
1.17909e+07
9.87461e+06
1.23819e+07
9.32223e+06
1.28865e+07
8.87055e+06
1.32779e+07
8.54125e+06
1.35399e+07
8.34477e+06
1.36679e+07
8.28023e+06
1.36681e+07
8.33671e+06
1.35557e+07
8.49549e+06
1.33525e+07
8.73286e+06
1.30841e+07
9.02309e+06
1.27765e+07
9.34115e+06
1.24542e+07
9.66498e+06
1.21376e+07
9.97713e+06
1.18419e+07
1.0266e+07
1.15758e+07
1.05267e+07
1.13403e+07
1.07623e+07
1.11271e+07
1.09852e+07
1.09165e+07
1.12207e+07
1.06726e+07
1.15135e+07
1.09718e+07
1.02137e+07
1.01074e+07
9.94472e+06
9.68963e+06
1.18859e+07
1.22492e+07
1.28116e+07
7.92376e+06
7.0663e+06
1.1151e+07
1.04984e+07
1.17933e+07
9.87696e+06
1.2385e+07
9.32512e+06
1.28908e+07
8.87421e+06
1.32839e+07
8.54586e+06
1.35482e+07
8.35039e+06
1.36793e+07
8.28678e+06
1.36834e+07
8.34389e+06
1.35758e+07
8.50277e+06
1.33781e+07
8.73945e+06
1.31155e+07
9.02806e+06
1.28133e+07
9.34353e+06
1.24951e+07
9.66391e+06
1.21801e+07
9.97194e+06
1.18827e+07
1.02561e+07
1.16117e+07
1.05112e+07
1.13697e+07
1.0739e+07
1.11531e+07
1.09492e+07
1.09504e+07
1.11619e+07
1.07381e+07
1.14113e+07
1.12007e+07
1.01783e+07
1.0135e+07
1.00723e+07
9.97609e+06
1.17428e+07
1.1885e+07
1.19688e+07
9.05075e+06
7.97737e+06
1.11489e+07
1.04962e+07
1.1791e+07
9.87445e+06
1.23821e+07
9.32196e+06
1.28868e+07
8.87015e+06
1.32783e+07
8.54066e+06
1.35406e+07
8.34392e+06
1.36688e+07
8.27903e+06
1.36693e+07
8.33505e+06
1.35574e+07
8.4932e+06
1.33549e+07
8.72973e+06
1.30874e+07
9.01881e+06
1.27812e+07
9.33527e+06
1.24607e+07
9.65678e+06
1.21471e+07
9.96542e+06
1.18563e+07
1.02488e+07
1.15981e+07
1.05003e+07
1.13759e+07
1.07201e+07
1.11855e+07
1.09148e+07
1.10146e+07
1.10983e+07
1.08419e+07
1.12932e+07
1.14274e+07
1.01792e+07
1.0198e+07
1.02322e+07
1.02851e+07
1.16082e+07
1.16959e+07
1.20879e+07
1.35759e+07
1.48746e+07
1.1151e+07
1.04982e+07
1.17934e+07
9.87672e+06
1.23852e+07
9.32473e+06
1.28911e+07
8.87363e+06
1.32844e+07
8.54502e+06
1.3549e+07
8.3492e+06
1.36805e+07
8.28513e+06
1.3685e+07
8.34162e+06
1.3578e+07
8.49968e+06
1.33812e+07
8.73528e+06
1.31196e+07
9.02243e+06
1.28187e+07
9.33589e+06
1.25022e+07
9.6534e+06
1.21897e+07
9.95714e+06
1.1896e+07
1.02345e+07
1.16309e+07
1.04784e+07
1.13998e+07
1.06869e+07
1.12042e+07
1.08631e+07
1.10441e+07
1.10145e+07
1.09174e+07
1.11526e+07
1.16324e+07
1.02063e+07
1.02764e+07
1.03883e+07
1.05571e+07
1.1462e+07
1.15024e+07
1.18717e+07
1.26227e+07
1.33304e+07
1.11489e+07
1.04961e+07
1.17911e+07
9.8742e+06
1.23823e+07
9.32154e+06
1.28872e+07
8.8695e+06
1.3279e+07
8.53972e+06
1.35416e+07
8.34257e+06
1.36703e+07
8.27714e+06
1.36714e+07
8.33244e+06
1.35602e+07
8.48964e+06
1.33587e+07
8.7249e+06
1.30926e+07
9.01227e+06
1.27882e+07
9.3264e+06
1.24705e+07
9.64464e+06
1.21611e+07
9.94851e+06
1.18767e+07
1.02245e+07
1.16291e+07
1.04644e+07
1.14245e+07
1.06643e+07
1.12639e+07
1.08242e+07
1.11437e+07
1.09451e+07
1.10565e+07
1.10267e+07
1.18095e+07
1.02546e+07
1.03558e+07
1.05145e+07
1.07649e+07
1.12848e+07
1.12294e+07
1.14319e+07
1.18647e+07
1.23185e+07
1.11509e+07
1.0498e+07
1.17935e+07
9.87637e+06
1.23855e+07
9.32418e+06
1.28916e+07
8.87281e+06
1.32851e+07
8.54383e+06
1.35501e+07
8.34753e+06
1.3682e+07
8.2828e+06
1.36872e+07
8.33845e+06
1.35811e+07
8.4954e+06
1.33853e+07
8.72956e+06
1.3125e+07
9.01482e+06
1.28259e+07
9.32575e+06
1.25116e+07
9.63976e+06
1.22018e+07
9.93842e+06
1.19119e+07
1.02081e+07
1.16525e+07
1.04396e+07
1.14308e+07
1.06275e+07
1.12531e+07
1.0768e+07
1.11301e+07
1.08568e+07
1.10863e+07
1.08855e+07
1.19361e+07
1.03213e+07
1.04269e+07
1.05835e+07
1.08547e+07
1.11004e+07
1.09576e+07
1.10571e+07
1.13538e+07
1.17144e+07
1.11489e+07
1.04959e+07
1.17913e+07
9.87387e+06
1.23827e+07
9.32099e+06
1.28879e+07
8.86867e+06
1.328e+07
8.5385e+06
1.35429e+07
8.34084e+06
1.36722e+07
8.27472e+06
1.3674e+07
8.3291e+06
1.35638e+07
8.48511e+06
1.33635e+07
8.71881e+06
1.3099e+07
9.00416e+06
1.27968e+07
9.31564e+06
1.24822e+07
9.63032e+06
1.21771e+07
9.92928e+06
1.18993e+07
1.01983e+07
1.1662e+07
1.04275e+07
1.14742e+07
1.06107e+07
1.13418e+07
1.07422e+07
1.12693e+07
1.08115e+07
1.12619e+07
1.07957e+07
1.20255e+07
1.04178e+07
1.04969e+07
1.05745e+07
1.05987e+07
1.0331e+07
1.02432e+07
1.01378e+07
9.99591e+06
9.87253e+06
1.11509e+07
1.04978e+07
1.17936e+07
9.87593e+06
1.23858e+07
9.32348e+06
1.28921e+07
8.87178e+06
1.3286e+07
8.54236e+06
1.35514e+07
8.34546e+06
1.36839e+07
8.27996e+06
1.36898e+07
8.33461e+06
1.35846e+07
8.49028e+06
1.33901e+07
8.72281e+06
1.31313e+07
9.006e+06
1.28341e+07
9.31428e+06
1.25219e+07
9.62478e+06
1.22148e+07
9.91868e+06
1.19279e+07
1.01815e+07
1.16719e+07
1.04029e+07
1.14539e+07
1.05749e+07
1.12801e+07
1.06893e+07
1.11643e+07
1.07328e+07
1.11563e+07
1.06758e+07
1.20509e+07
1.05574e+07
1.06108e+07
1.06441e+07
1.06328e+07
1.05344e+07
1.04612e+07
1.0387e+07
1.03059e+07
1.02386e+07
1.11489e+07
1.04958e+07
1.17915e+07
9.87349e+06
1.23832e+07
9.32036e+06
1.28886e+07
8.8677e+06
1.32811e+07
8.53709e+06
1.35446e+07
8.33883e+06
1.36745e+07
8.27193e+06
1.36771e+07
8.32529e+06
1.3568e+07
8.47997e+06
1.33691e+07
8.712e+06
1.31063e+07
8.99525e+06
1.28063e+07
9.3041e+06
1.24944e+07
9.6155e+06
1.21929e+07
9.91037e+06
1.19202e+07
1.01742e+07
1.16903e+07
1.03971e+07
1.15138e+07
1.05723e+07
1.13996e+07
1.06937e+07
1.13589e+07
1.07466e+07
1.14168e+07
1.06755e+07
1.20783e+07
1.0754e+07
1.07749e+07
1.07732e+07
1.07507e+07
1.06927e+07
1.0636e+07
1.05783e+07
1.05237e+07
1.04791e+07
1.11508e+07
1.04975e+07
1.17938e+07
9.87543e+06
1.23861e+07
9.32269e+06
1.28928e+07
8.8706e+06
1.3287e+07
8.54068e+06
1.35528e+07
8.34312e+06
1.36859e+07
8.27678e+06
1.36927e+07
8.33035e+06
1.35884e+07
8.48468e+06
1.33951e+07
8.71556e+06
1.31379e+07
8.99673e+06
1.28424e+07
9.30256e+06
1.25323e+07
9.61007e+06
1.22274e+07
9.90026e+06
1.19426e+07
1.01584e+07
1.16877e+07
1.03738e+07
1.14676e+07
1.05382e+07
1.12814e+07
1.06437e+07
1.11184e+07
1.06794e+07
1.09331e+07
1.06252e+07
1.05253e+07
1.04401e+07
1.04427e+07
1.0393e+07
1.037e+07
1.03025e+07
1.02586e+07
1.02074e+07
1.01729e+07
1.01503e+07
1.1149e+07
1.04956e+07
1.17918e+07
9.8731e+06
1.23837e+07
9.31969e+06
1.28894e+07
8.86668e+06
1.32823e+07
8.53559e+06
1.35464e+07
8.33671e+06
1.3677e+07
8.26899e+06
1.36806e+07
8.32128e+06
1.35726e+07
8.47462e+06
1.33751e+07
8.70499e+06
1.3114e+07
8.98623e+06
1.28159e+07
9.29273e+06
1.25062e+07
9.60147e+06
1.22072e+07
9.89346e+06
1.19372e+07
1.01545e+07
1.17102e+07
1.03756e+07
1.15367e+07
1.05526e+07
1.14242e+07
1.06874e+07
1.13796e+07
1.07931e+07
1.1411e+07
1.09202e+07
1.15249e+07
1.12879e+07
1.15117e+07
1.14076e+07
1.15189e+07
1.14951e+07
1.15631e+07
1.15644e+07
1.15988e+07
1.16029e+07
1.11507e+07
1.04972e+07
1.17939e+07
9.87488e+06
1.23865e+07
9.32183e+06
1.28934e+07
8.86934e+06
1.32879e+07
8.53888e+06
1.35543e+07
8.34065e+06
1.36879e+07
8.27343e+06
1.36954e+07
8.32593e+06
1.35922e+07
8.47895e+06
1.34e+07
8.70828e+06
1.31442e+07
8.98765e+06
1.28503e+07
9.29144e+06
1.2542e+07
9.5967e+06
1.22389e+07
9.8845e+06
1.19558e+07
1.01403e+07
1.17018e+07
1.03539e+07
1.14807e+07
1.0518e+07
1.12897e+07
1.06276e+07
1.11182e+07
1.06786e+07
1.09435e+07
1.0669e+07
1.07405e+07
1.06095e+07
1.06387e+07
1.05739e+07
1.0576e+07
1.05345e+07
1.0522e+07
1.04969e+07
1.04852e+07
1.0476e+07
1.1149e+07
1.04954e+07
1.1792e+07
9.87271e+06
1.23842e+07
9.31903e+06
1.28903e+07
8.86567e+06
1.32837e+07
8.53412e+06
1.35483e+07
8.33462e+06
1.36797e+07
8.26609e+06
1.36842e+07
8.31736e+06
1.35774e+07
8.46942e+06
1.33813e+07
8.69825e+06
1.31217e+07
8.97771e+06
1.28251e+07
9.28224e+06
1.25169e+07
9.58895e+06
1.22191e+07
9.87913e+06
1.19496e+07
1.01391e+07
1.17218e+07
1.03606e+07
1.15447e+07
1.05412e+07
1.14231e+07
1.06857e+07
1.13581e+07
1.08084e+07
1.13447e+07
1.0939e+07
1.13635e+07
1.11144e+07
1.13555e+07
1.12185e+07
1.13482e+07
1.12834e+07
1.13516e+07
1.13253e+07
1.13551e+07
1.13486e+07
1.11506e+07
1.04969e+07
1.1794e+07
9.87431e+06
1.23868e+07
9.32094e+06
1.28939e+07
8.86805e+06
1.32888e+07
8.53707e+06
1.35556e+07
8.33815e+06
1.36898e+07
8.2701e+06
1.36979e+07
8.32157e+06
1.35955e+07
8.47339e+06
1.34043e+07
8.70134e+06
1.31497e+07
8.97922e+06
1.28572e+07
9.28144e+06
1.25504e+07
9.5852e+06
1.2249e+07
9.8718e+06
1.19675e+07
1.01271e+07
1.17152e+07
1.03416e+07
1.14956e+07
1.05096e+07
1.13074e+07
1.06284e+07
1.11443e+07
1.06986e+07
1.09979e+07
1.0725e+07
1.08676e+07
1.07209e+07
1.07851e+07
1.07127e+07
1.07364e+07
1.07015e+07
1.07058e+07
1.06901e+07
1.06886e+07
1.0684e+07
1.11491e+07
1.04953e+07
1.17923e+07
9.87236e+06
1.23848e+07
9.31843e+06
1.28912e+07
8.86474e+06
1.3285e+07
8.53276e+06
1.35503e+07
8.3327e+06
1.36824e+07
8.26344e+06
1.36879e+07
8.31378e+06
1.35822e+07
8.4647e+06
1.33874e+07
8.69218e+06
1.31291e+07
8.97012e+06
1.28339e+07
9.27307e+06
1.25266e+07
9.57832e+06
1.22291e+07
9.86739e+06
1.19586e+07
1.0127e+07
1.17276e+07
1.03493e+07
1.15438e+07
1.05323e+07
1.14099e+07
1.06801e+07
1.13238e+07
1.08025e+07
1.12774e+07
1.09136e+07
1.12547e+07
1.10204e+07
1.12336e+07
1.10948e+07
1.12158e+07
1.11414e+07
1.1204e+07
1.11692e+07
1.11954e+07
1.11855e+07
1.11505e+07
1.04966e+07
1.1794e+07
9.87374e+06
1.2387e+07
9.32008e+06
1.28944e+07
8.86679e+06
1.32895e+07
8.53531e+06
1.35566e+07
8.33577e+06
1.36913e+07
8.26694e+06
1.37e+07
8.31749e+06
1.35982e+07
8.46825e+06
1.34078e+07
8.69505e+06
1.3154e+07
8.97174e+06
1.28626e+07
9.27284e+06
1.2557e+07
9.57573e+06
1.22569e+07
9.86194e+06
1.19772e+07
1.01178e+07
1.1727e+07
1.03345e+07
1.15106e+07
1.05075e+07
1.1328e+07
1.06357e+07
1.11759e+07
1.07219e+07
1.10506e+07
1.07721e+07
1.09522e+07
1.07968e+07
1.08869e+07
1.0809e+07
1.08489e+07
1.0814e+07
1.08286e+07
1.08152e+07
1.0819e+07
1.08157e+07
1.11492e+07
1.04952e+07
1.17927e+07
9.87209e+06
1.23853e+07
9.31793e+06
1.28921e+07
8.86397e+06
1.32864e+07
8.53163e+06
1.35522e+07
8.33109e+06
1.3685e+07
8.26121e+06
1.36914e+07
8.31077e+06
1.35868e+07
8.46073e+06
1.33931e+07
8.68709e+06
1.31361e+07
8.96382e+06
1.28419e+07
9.26554e+06
1.25354e+07
9.56972e+06
1.22377e+07
9.85811e+06
1.19655e+07
1.01176e+07
1.17307e+07
1.03405e+07
1.15398e+07
1.05246e+07
1.13945e+07
1.06725e+07
1.12917e+07
1.07905e+07
1.12239e+07
1.08865e+07
1.11797e+07
1.09642e+07
1.11473e+07
1.10186e+07
1.1123e+07
1.10523e+07
1.11058e+07
1.10719e+07
1.10938e+07
1.10839e+07
1.11503e+07
1.04963e+07
1.1794e+07
9.87321e+06
1.23872e+07
9.31927e+06
1.28947e+07
8.86564e+06
1.32901e+07
8.53371e+06
1.35574e+07
8.33361e+06
1.36924e+07
8.2641e+06
1.37014e+07
8.31386e+06
1.36e+07
8.46375e+06
1.34101e+07
8.68963e+06
1.31569e+07
8.96543e+06
1.28661e+07
9.26578e+06
1.25614e+07
9.56821e+06
1.22624e+07
9.85451e+06
1.19841e+07
1.01114e+07
1.1736e+07
1.03305e+07
1.1523e+07
1.05079e+07
1.13459e+07
1.06437e+07
1.12027e+07
1.0741e+07
1.10907e+07
1.08058e+07
1.1008e+07
1.08462e+07
1.09535e+07
1.08707e+07
1.09218e+07
1.08847e+07
1.09059e+07
1.0892e+07
1.08989e+07
1.08956e+07
1.11493e+07
1.04952e+07
1.1793e+07
9.87191e+06
1.23859e+07
9.31758e+06
1.28929e+07
8.86341e+06
1.32876e+07
8.53079e+06
1.35539e+07
8.32989e+06
1.36874e+07
8.25954e+06
1.36946e+07
8.3085e+06
1.3591e+07
8.45773e+06
1.33984e+07
8.68323e+06
1.31425e+07
8.95903e+06
1.28493e+07
9.25984e+06
1.25433e+07
9.56326e+06
1.22453e+07
9.85119e+06
1.19716e+07
1.01107e+07
1.17333e+07
1.0334e+07
1.15364e+07
1.05184e+07
1.13823e+07
1.06655e+07
1.12679e+07
1.07799e+07
1.11868e+07
1.08671e+07
1.11306e+07
1.09313e+07
1.10913e+07
1.09746e+07
1.10638e+07
1.10008e+07
1.10453e+07
1.10156e+07
1.10333e+07
1.10247e+07
1.11501e+07
1.0496e+07
1.1794e+07
9.87274e+06
1.23872e+07
9.31858e+06
1.28949e+07
8.86465e+06
1.32904e+07
8.53234e+06
1.35578e+07
8.33177e+06
1.36929e+07
8.26171e+06
1.37021e+07
8.31085e+06
1.36009e+07
8.46005e+06
1.34112e+07
8.68525e+06
1.31583e+07
8.96043e+06
1.28678e+07
9.26032e+06
1.25634e+07
9.56256e+06
1.22651e+07
9.84913e+06
1.19878e+07
1.0107e+07
1.17415e+07
1.0328e+07
1.15313e+07
1.05089e+07
1.13585e+07
1.06497e+07
1.12214e+07
1.0754e+07
1.11173e+07
1.08271e+07
1.10426e+07
1.08758e+07
1.09936e+07
1.09067e+07
1.0965e+07
1.09252e+07
1.09505e+07
1.09352e+07
1.09439e+07
1.09403e+07
1.11495e+07
1.04952e+07
1.17932e+07
9.87184e+06
1.23863e+07
9.31741e+06
1.28937e+07
8.8631e+06
1.32886e+07
8.53032e+06
1.35554e+07
8.32919e+06
1.36895e+07
8.25854e+06
1.36974e+07
8.3071e+06
1.35946e+07
8.45583e+06
1.34031e+07
8.68075e+06
1.31481e+07
8.95591e+06
1.28558e+07
9.25609e+06
1.25502e+07
9.55898e+06
1.22521e+07
9.84659e+06
1.19772e+07
1.0106e+07
1.17363e+07
1.03295e+07
1.15351e+07
1.0514e+07
1.13748e+07
1.06606e+07
1.12528e+07
1.07728e+07
1.11638e+07
1.08555e+07
1.11012e+07
1.09137e+07
1.10581e+07
1.09516e+07
1.10296e+07
1.09741e+07
1.10116e+07
1.09863e+07
1.10008e+07
1.09937e+07
1.115e+07
1.04957e+07
1.17939e+07
9.87235e+06
1.23872e+07
9.31802e+06
1.28949e+07
8.86386e+06
1.32903e+07
8.53127e+06
1.35578e+07
8.33036e+06
1.36929e+07
8.25989e+06
1.37021e+07
8.30857e+06
1.36008e+07
8.45731e+06
1.3411e+07
8.68206e+06
1.31579e+07
8.95687e+06
1.28674e+07
9.25652e+06
1.25631e+07
9.55874e+06
1.2265e+07
9.84561e+06
1.19884e+07
1.01042e+07
1.17435e+07
1.03266e+07
1.15354e+07
1.05095e+07
1.13656e+07
1.06534e+07
1.12326e+07
1.07615e+07
1.1133e+07
1.08389e+07
1.10624e+07
1.08916e+07
1.10159e+07
1.09254e+07
1.09882e+07
1.09456e+07
1.09735e+07
1.09566e+07
1.09665e+07
1.09623e+07
1.11496e+07