/*--------------------------------*- C++ -*----------------------------------*\
| =========                 |                                                 |
| \\      /  F ield         | foam-extend: Open Source CFD                    |
|  \\    /   O peration     | Version:     4.0                                |
|   \\  /    A nd           | Web:         http://www.foam-extend.org         |
|    \\/     M anipulation  |                                                 |
\*---------------------------------------------------------------------------*/
FoamFile
{
    version     2.0;
    format      ascii;
    class       surfaceScalarField;
    location    "2.00098e-05";
    object      phi;
}
// * * * * * * * * * * * * * * * * * * * * * * * * * * * * * * * * * * * * * //

dimensions      [0 3 -1 0 0 0 0];

internalField   nonuniform List<scalar> 
57362
(
1.4673e-07
1.39285e-10
1.46621e-07
1.41411e-10
1.46421e-07
1.45799e-10
1.46344e-07
1.52305e-10
1.46088e-07
1.61352e-10
1.46028e-07
1.72611e-10
1.45712e-07
1.86873e-10
1.45652e-07
2.03526e-10
1.45272e-07
2.23876e-10
1.45191e-07
2.4686e-10
1.44743e-07
2.7453e-10
1.44617e-07
3.05113e-10
1.44092e-07
3.41759e-10
1.43895e-07
3.8159e-10
1.43282e-07
4.2936e-10
1.42983e-07
4.80521e-10
1.42264e-07
5.42143e-10
1.41828e-07
6.07201e-10
1.40977e-07
6.86068e-10
1.40365e-07
7.68126e-10
1.3935e-07
8.68364e-10
1.38516e-07
9.71082e-10
1.37291e-07
1.09758e-09
1.36183e-07
1.22516e-09
1.34693e-07
1.38352e-09
1.33249e-07
1.5406e-09
1.31425e-07
1.73693e-09
1.29574e-07
1.92837e-09
1.27337e-07
2.16878e-09
1.24997e-07
2.39927e-09
1.22256e-07
2.6891e-09
1.19338e-07
2.96252e-09
1.15995e-07
3.30497e-09
1.12404e-07
3.6234e-09
1.0836e-07
4.01773e-09
1.04002e-07
4.38006e-09
9.91643e-08
4.81945e-09
9.39593e-08
5.21948e-09
8.8259e-08
5.68901e-09
8.21549e-08
6.11316e-09
7.55593e-08
6.58893e-09
6.85505e-08
7.01406e-09
6.10828e-08
7.46406e-09
5.32285e-08
7.85711e-09
4.49828e-08
8.24397e-09
3.64187e-08
8.56559e-09
2.75668e-08
8.85115e-09
1.85044e-08
9.06309e-09
9.28908e-09
9.21518e-09
9.28929e-09
1.46717e-07
2.76471e-10
1.46611e-07
2.80694e-10
1.46412e-07
2.89406e-10
1.46338e-07
3.02325e-10
1.46084e-07
3.20287e-10
1.46027e-07
3.42644e-10
1.45713e-07
3.70962e-10
1.45657e-07
4.04032e-10
1.4528e-07
4.4444e-10
1.45203e-07
4.90086e-10
1.44758e-07
5.45036e-10
1.44638e-07
6.05783e-10
1.44118e-07
6.78567e-10
1.43926e-07
7.57697e-10
1.43319e-07
8.52593e-10
1.43027e-07
9.54254e-10
1.42315e-07
1.0767e-09
1.41888e-07
1.20601e-09
1.41047e-07
1.36277e-09
1.40445e-07
1.52593e-09
1.39441e-07
1.72525e-09
1.38621e-07
1.92957e-09
1.37409e-07
2.18125e-09
1.36317e-07
2.43515e-09
1.34843e-07
2.75046e-09
1.33417e-07
3.06323e-09
1.31613e-07
3.4545e-09
1.29783e-07
3.83593e-09
1.27568e-07
4.31565e-09
1.25252e-07
4.77523e-09
1.22535e-07
5.35442e-09
1.19642e-07
5.90006e-09
1.16323e-07
6.58564e-09
1.12757e-07
7.22182e-09
1.08735e-07
8.01285e-09
1.04399e-07
8.73791e-09
9.95788e-08
9.62108e-09
9.43891e-08
1.04235e-08
8.8697e-08
1.1369e-08
8.25964e-08
1.22226e-08
7.59955e-08
1.31822e-08
6.89735e-08
1.40411e-08
6.14829e-08
1.49501e-08
5.35957e-08
1.57468e-08
4.53076e-08
1.65294e-08
3.66912e-08
1.7183e-08
2.77794e-08
1.77615e-08
1.86499e-08
1.81928e-08
9.36312e-09
1.85011e-08
1.86521e-08
1.46736e-07
4.09547e-10
1.46634e-07
4.15809e-10
1.4644e-07
4.28721e-10
1.4637e-07
4.4787e-10
1.46121e-07
4.74491e-10
1.46068e-07
5.07632e-10
1.45761e-07
5.49607e-10
1.4571e-07
5.98635e-10
1.45339e-07
6.58539e-10
1.45269e-07
7.26224e-10
1.44833e-07
8.07703e-10
1.4472e-07
8.97803e-10
1.4421e-07
1.00575e-09
1.44029e-07
1.12316e-09
1.43433e-07
1.26395e-09
1.43154e-07
1.41485e-09
1.42457e-07
1.59659e-09
1.42046e-07
1.78864e-09
1.41222e-07
2.02143e-09
1.40641e-07
2.26391e-09
1.39658e-07
2.56012e-09
1.38861e-07
2.86402e-09
1.37676e-07
3.23838e-09
1.36612e-07
3.6164e-09
1.35169e-07
4.08589e-09
1.33777e-07
4.55218e-09
1.32009e-07
5.13553e-09
1.30217e-07
5.70506e-09
1.28043e-07
6.42144e-09
1.25769e-07
7.10893e-09
1.23096e-07
7.97555e-09
1.20247e-07
8.79357e-09
1.16973e-07
9.82179e-09
1.13449e-07
1.07779e-08
1.09468e-07
1.19676e-08
1.05167e-07
1.30604e-08
1.00378e-07
1.43929e-08
9.52104e-08
1.56059e-08
8.95316e-08
1.70374e-08
8.34314e-08
1.8332e-08
7.6818e-08
1.979e-08
6.97677e-08
2.10971e-08
6.22325e-08
2.24828e-08
5.42829e-08
2.36997e-08
4.59149e-08
2.48968e-08
3.72015e-08
2.58984e-08
2.81775e-08
2.67858e-08
1.89229e-08
2.74486e-08
9.50202e-09
2.79227e-08
2.8155e-08
1.46742e-07
5.36498e-10
1.46646e-07
5.44707e-10
1.46459e-07
5.6163e-10
1.46395e-07
5.86734e-10
1.46153e-07
6.21629e-10
1.46109e-07
6.65081e-10
1.45809e-07
7.20107e-10
1.45767e-07
7.844e-10
1.45407e-07
8.62943e-10
1.45347e-07
9.51724e-10
1.44922e-07
1.05858e-09
1.44823e-07
1.1768e-09
1.44327e-07
1.31842e-09
1.44163e-07
1.47254e-09
1.43586e-07
1.65732e-09
1.43326e-07
1.85551e-09
1.42652e-07
2.09416e-09
1.42265e-07
2.34658e-09
1.4147e-07
2.6525e-09
1.40919e-07
2.97147e-09
1.39971e-07
3.3611e-09
1.39212e-07
3.76129e-09
1.38069e-07
4.2543e-09
1.3705e-07
4.75272e-09
1.35657e-07
5.37201e-09
1.34318e-07
5.9877e-09
1.32609e-07
6.75876e-09
1.30879e-07
7.51208e-09
1.28771e-07
8.46142e-09
1.26567e-07
9.37257e-09
1.23967e-07
1.05247e-08
1.21193e-07
1.16114e-08
1.17993e-07
1.29838e-08
1.14545e-07
1.42576e-08
1.10633e-07
1.58525e-08
1.06402e-07
1.73137e-08
1.01667e-07
1.91085e-08
9.65486e-08
2.07387e-08
9.08971e-08
2.26757e-08
8.48104e-08
2.44273e-08
7.81832e-08
2.64081e-08
7.10938e-08
2.8191e-08
6.34893e-08
3.00812e-08
5.54381e-08
3.17527e-08
4.69384e-08
3.33924e-08
3.80615e-08
3.47755e-08
2.8849e-08
3.59955e-08
1.93829e-08
3.6914e-08
9.73624e-09
3.75674e-08
3.78899e-08
1.46735e-07
6.55427e-10
1.46647e-07
6.65466e-10
1.46468e-07
6.86156e-10
1.46413e-07
7.16856e-10
1.46181e-07
7.59524e-10
1.46146e-07
8.12669e-10
1.45857e-07
8.79963e-10
1.45826e-07
9.58617e-10
1.45478e-07
1.05469e-09
1.45433e-07
1.16334e-09
1.45023e-07
1.29409e-09
1.44941e-07
1.43883e-09
1.44463e-07
1.6122e-09
1.44319e-07
1.80099e-09
1.43765e-07
2.02733e-09
1.43532e-07
2.27029e-09
1.42886e-07
2.56284e-09
1.42531e-07
2.87255e-09
1.41771e-07
3.24791e-09
1.41259e-07
3.63973e-09
1.40354e-07
4.11838e-09
1.39642e-07
4.61067e-09
1.38551e-07
5.21726e-09
1.37589e-07
5.83145e-09
1.36259e-07
6.59488e-09
1.34988e-07
7.35522e-09
1.33351e-07
8.30803e-09
1.317e-07
9.24074e-09
1.29675e-07
1.04174e-08
1.27559e-07
1.1549e-08
1.25049e-07
1.29823e-08
1.22368e-07
1.4337e-08
1.19262e-07
1.60517e-08
1.15905e-07
1.76465e-08
1.12082e-07
1.96499e-08
1.0793e-07
2.14885e-08
1.03266e-07
2.37563e-08
9.81999e-08
2.58194e-08
9.25841e-08
2.82825e-08
8.65074e-08
3.05139e-08
7.98631e-08
3.30485e-08
7.27243e-08
3.53362e-08
6.50356e-08
3.77693e-08
5.68628e-08
3.99301e-08
4.82031e-08
4.20533e-08
3.91286e-08
4.38533e-08
2.96841e-08
4.54419e-08
1.99572e-08
4.66437e-08
1.00289e-08
4.74981e-08
4.79212e-08
1.4676e-07
7.6455e-10
1.46682e-07
7.76272e-10
1.46513e-07
8.00427e-10
1.46469e-07
8.3628e-10
1.46248e-07
8.86098e-10
1.46225e-07
9.48174e-10
1.45949e-07
1.02676e-09
1.45933e-07
1.11865e-09
1.45601e-07
1.23088e-09
1.45573e-07
1.35787e-09
1.45182e-07
1.51066e-09
1.45121e-07
1.67991e-09
1.44667e-07
1.88259e-09
1.4455e-07
2.10352e-09
1.44025e-07
2.36829e-09
1.43824e-07
2.65285e-09
1.43215e-07
2.99536e-09
1.429e-07
3.35849e-09
1.42186e-07
3.79843e-09
1.41723e-07
4.25846e-09
1.40875e-07
4.82024e-09
1.40224e-07
5.39918e-09
1.39202e-07
6.11243e-09
1.38314e-07
6.83619e-09
1.37068e-07
7.73595e-09
1.35885e-07
8.63407e-09
1.34347e-07
9.76044e-09
1.32799e-07
1.08653e-08
1.30888e-07
1.22616e-08
1.2889e-07
1.36065e-08
1.26505e-07
1.53157e-08
1.23954e-07
1.69317e-08
1.20979e-07
1.89889e-08
1.17758e-07
2.08997e-08
1.14059e-07
2.33203e-08
1.10034e-07
2.55353e-08
1.05473e-07
2.82968e-08
1.00506e-07
3.08008e-08
9.49503e-08
3.38227e-08
8.89127e-08
3.65595e-08
8.22602e-08
3.96895e-08
7.50665e-08
4.25335e-08
6.72691e-08
4.55578e-08
5.89253e-08
4.82743e-08
5.00393e-08
5.09325e-08
4.06766e-08
5.32144e-08
3.08968e-08
5.52163e-08
2.07894e-08
5.67484e-08
1.04532e-08
5.78298e-08
5.83708e-08
1.46771e-07
8.62237e-10
1.46705e-07
8.75474e-10
1.46548e-07
9.02743e-10
1.46516e-07
9.43233e-10
1.46308e-07
9.99482e-10
1.46299e-07
1.0696e-09
1.46039e-07
1.15835e-09
1.46039e-07
1.26218e-09
1.45725e-07
1.38896e-09
1.45716e-07
1.53251e-09
1.45347e-07
1.70519e-09
1.4531e-07
1.89664e-09
1.44883e-07
2.12584e-09
1.44795e-07
2.37592e-09
1.44304e-07
2.67559e-09
1.4414e-07
2.99801e-09
1.43572e-07
3.38606e-09
1.43303e-07
3.79802e-09
1.4264e-07
4.29712e-09
1.42235e-07
4.81982e-09
1.41449e-07
5.45821e-09
1.40868e-07
6.11731e-09
1.39923e-07
6.92956e-09
1.3912e-07
7.75551e-09
1.37966e-07
8.78295e-09
1.36886e-07
9.81091e-09
1.35457e-07
1.11015e-08
1.34029e-07
1.23706e-08
1.32245e-07
1.39774e-08
1.30382e-07
1.55289e-08
1.28139e-07
1.75063e-08
1.25735e-07
1.938e-08
1.22912e-07
2.17756e-08
1.19839e-07
2.40048e-08
1.16289e-07
2.68455e-08
1.12398e-07
2.9448e-08
1.07962e-07
3.27182e-08
1.03093e-07
3.56852e-08
9.76111e-08
3.92983e-08
9.16072e-08
4.25742e-08
8.49442e-08
4.63515e-08
7.76901e-08
4.97958e-08
6.97746e-08
5.3476e-08
6.12505e-08
5.68051e-08
5.21178e-08
6.00697e-08
4.24419e-08
6.28963e-08
3.22862e-08
6.53775e-08
2.1749e-08
6.72913e-08
1.09435e-08
6.86409e-08
6.93201e-08
1.46769e-07
9.46971e-10
1.46716e-07
9.61528e-10
1.46573e-07
9.9151e-10
1.46555e-07
1.03604e-09
1.46362e-07
1.0979e-09
1.4637e-07
1.17504e-09
1.46126e-07
1.27264e-09
1.46145e-07
1.38692e-09
1.45852e-07
1.5264e-09
1.45866e-07
1.68446e-09
1.45523e-07
1.87453e-09
1.45514e-07
2.08547e-09
1.45119e-07
2.33791e-09
1.45066e-07
2.6137e-09
1.44614e-07
2.94401e-09
1.44493e-07
3.29998e-09
1.43975e-07
3.72817e-09
1.4376e-07
4.18366e-09
1.43159e-07
4.73513e-09
1.42821e-07
5.3141e-09
1.42113e-07
6.02072e-09
1.41614e-07
6.75241e-09
1.40765e-07
7.65352e-09
1.40063e-07
8.57295e-09
1.39025e-07
9.71619e-09
1.38068e-07
1.08643e-08
1.36778e-07
1.23058e-08
1.35496e-07
1.37287e-08
1.33875e-07
1.55325e-08
1.32182e-07
1.72798e-08
1.30124e-07
1.95137e-08
1.27913e-07
2.1635e-08
1.25287e-07
2.43634e-08
1.22421e-07
2.69016e-08
1.19068e-07
3.01694e-08
1.15385e-07
3.3153e-08
1.11122e-07
3.6958e-08
1.06431e-07
4.03902e-08
1.01069e-07
4.46419e-08
9.5165e-08
4.84856e-08
8.85326e-08
5.29683e-08
8.12308e-08
5.70993e-08
7.3187e-08
6.15065e-08
6.44267e-08
6.55631e-08
5.49679e-08
6.95171e-08
4.48585e-08
7.30006e-08
3.41885e-08
7.60375e-08
2.30587e-08
7.84144e-08
1.16127e-08
8.0078e-08
8.09248e-08
1.46798e-07
1.01751e-09
1.4676e-07
1.03318e-09
1.46631e-07
1.06544e-09
1.46629e-07
1.11337e-09
1.46452e-07
1.17992e-09
1.46477e-07
1.26296e-09
1.46252e-07
1.36802e-09
1.46292e-07
1.49108e-09
1.46021e-07
1.64127e-09
1.4606e-07
1.81158e-09
1.45744e-07
2.01634e-09
1.45765e-07
2.2438e-09
1.45403e-07
2.51595e-09
1.45388e-07
2.81361e-09
1.44978e-07
3.17005e-09
1.44904e-07
3.55472e-09
1.44437e-07
4.01736e-09
1.44281e-07
4.51032e-09
1.43745e-07
5.10712e-09
1.4348e-07
5.73492e-09
1.42852e-07
6.5012e-09
1.42445e-07
7.29652e-09
1.41694e-07
8.27628e-09
1.41105e-07
9.27865e-09
1.40188e-07
1.05258e-08
1.39366e-07
1.17821e-08
1.38223e-07
1.33614e-08
1.37103e-07
1.49254e-08
1.35656e-07
1.69123e-08
1.34151e-07
1.88434e-08
1.32293e-07
2.13209e-08
1.30291e-07
2.36805e-08
1.27887e-07
2.67323e-08
1.25242e-07
2.95775e-08
1.22117e-07
3.32714e-08
1.18647e-07
3.6646e-08
1.14591e-07
4.10015e-08
1.10071e-07
4.49258e-08
1.0485e-07
4.98604e-08
9.90318e-08
5.43157e-08
9.24176e-08
5.95861e-08
8.50688e-08
6.44592e-08
7.68917e-08
6.96915e-08
6.79047e-08
7.45609e-08
5.81126e-08
7.93192e-08
4.75584e-08
8.35657e-08
3.6334e-08
8.7273e-08
2.45514e-08
9.02081e-08
1.23791e-08
9.22617e-08
9.33153e-08
1.46814e-07
1.07274e-09
1.46791e-07
1.08929e-09
1.46678e-07
1.12333e-09
1.46693e-07
1.17395e-09
1.46534e-07
1.24422e-09
1.46578e-07
1.33194e-09
1.46374e-07
1.44288e-09
1.46436e-07
1.57294e-09
1.4619e-07
1.7316e-09
1.46256e-07
1.91169e-09
1.4597e-07
2.12812e-09
1.46025e-07
2.36883e-09
1.45702e-07
2.65669e-09
1.45728e-07
2.97203e-09
1.45365e-07
3.3494e-09
1.45343e-07
3.75748e-09
1.44937e-07
4.24786e-09
1.44846e-07
4.77172e-09
1.44386e-07
5.4053e-09
1.44202e-07
6.07393e-09
1.43669e-07
6.88907e-09
1.43363e-07
7.73843e-09
1.42731e-07
8.78338e-09
1.42268e-07
9.85751e-09
1.41497e-07
1.11922e-08
1.40831e-07
1.2544e-08
1.39866e-07
1.42416e-08
1.38934e-07
1.59329e-08
1.37699e-07
1.80809e-08
1.3642e-07
2.01815e-08
1.34809e-07
2.28802e-08
1.33069e-07
2.54639e-08
1.30941e-07
2.88217e-08
1.28591e-07
3.19592e-08
1.25754e-07
3.60769e-08
1.22596e-07
3.98258e-08
1.18812e-07
4.47606e-08
1.14594e-07
4.91576e-08
1.09586e-07
5.48445e-08
1.03992e-07
5.99157e-08
9.75135e-08
6.60429e-08
9.0162e-08
7.1809e-08
8.18731e-08
7.79603e-08
7.25908e-08
8.38358e-08
6.23616e-08
8.95301e-08
5.11891e-08
9.47269e-08
3.92091e-08
9.92359e-08
2.65397e-08
1.02864e-07
1.33973e-08
1.05388e-07
1.06697e-07
1.46815e-07
1.11184e-09
1.46808e-07
1.12901e-09
1.46712e-07
1.16435e-09
1.46745e-07
1.21691e-09
1.46604e-07
1.28984e-09
1.46668e-07
1.38096e-09
1.46485e-07
1.49615e-09
1.4657e-07
1.63129e-09
1.4635e-07
1.79611e-09
1.46444e-07
1.98335e-09
1.4619e-07
2.20831e-09
1.46279e-07
2.45879e-09
1.45994e-07
2.75824e-09
1.46064e-07
3.08672e-09
1.4575e-07
3.4797e-09
1.45782e-07
3.90535e-09
1.45436e-07
4.41674e-09
1.45414e-07
4.96412e-09
1.45029e-07
5.62602e-09
1.44932e-07
6.3262e-09
1.44494e-07
7.17975e-09
1.44298e-07
8.07167e-09
1.43784e-07
9.1691e-09
1.43457e-07
1.0301e-08
1.42834e-07
1.1708e-08
1.42335e-07
1.31386e-08
1.41554e-07
1.49369e-08
1.40826e-07
1.67364e-08
1.39814e-07
1.90259e-08
1.38778e-07
2.12755e-08
1.37433e-07
2.41751e-08
1.35977e-07
2.69638e-08
1.34155e-07
3.06087e-08
1.32119e-07
3.40263e-08
1.29619e-07
3.85558e-08
1.26785e-07
4.26826e-08
1.23333e-07
4.82026e-08
1.19405e-07
5.31024e-08
1.14659e-07
5.95914e-08
1.09254e-07
6.53353e-08
1.0285e-07
7.24573e-08
9.55109e-08
7.91641e-08
8.7121e-08
8.63659e-08
7.76042e-08
9.337e-08
6.69778e-08
1.00175e-07
5.52217e-08
1.06502e-07
4.24645e-08
1.12013e-07
2.88322e-08
1.16516e-07
1.45837e-08
1.19657e-07
1.21302e-07
1.46847e-07
1.13415e-09
1.46857e-07
1.1517e-09
1.46779e-07
1.1878e-09
1.4683e-07
1.24151e-09
1.46709e-07
1.31602e-09
1.46794e-07
1.40916e-09
1.46634e-07
1.52688e-09
1.46744e-07
1.66509e-09
1.46551e-07
1.83358e-09
1.46675e-07
2.0252e-09
1.46454e-07
2.25531e-09
1.46581e-07
2.51187e-09
1.46338e-07
2.81841e-09
1.46454e-07
3.15526e-09
1.46193e-07
3.55793e-09
1.46284e-07
3.9951e-09
1.46005e-07
4.51976e-09
1.46057e-07
5.08304e-09
1.45757e-07
5.76325e-09
1.45753e-07
6.48557e-09
1.45423e-07
7.36461e-09
1.45343e-07
8.28762e-09
1.44967e-07
9.42094e-09
1.44786e-07
1.05969e-08
1.44336e-07
1.20551e-08
1.4402e-07
1.35488e-08
1.43452e-07
1.54213e-08
1.42952e-07
1.73116e-08
1.42202e-07
1.971e-08
1.41445e-07
2.20904e-08
1.40416e-07
2.51528e-08
1.39294e-07
2.81285e-08
1.37843e-07
3.20212e-08
1.36199e-07
3.57011e-08
1.34108e-07
4.0615e-08
1.31718e-07
4.50938e-08
1.28672e-07
5.12199e-08
1.25231e-07
5.65581e-08
1.20817e-07
6.39767e-08
1.15899e-07
7.0258e-08
1.099e-07
7.84254e-08
1.02668e-07
8.63889e-08
9.4259e-08
9.47453e-08
8.44185e-08
1.03195e-07
7.32376e-08
1.11328e-07
6.06276e-08
1.1909e-07
4.67743e-08
1.25839e-07
3.18299e-08
1.31436e-07
1.61223e-08
1.35337e-07
1.37397e-07
1.46864e-07
1.13935e-09
1.46891e-07
1.15702e-09
1.46831e-07
1.19333e-09
1.469e-07
1.24739e-09
1.46799e-07
1.32236e-09
1.46905e-07
1.41614e-09
1.46768e-07
1.53462e-09
1.46903e-07
1.67383e-09
1.46737e-07
1.8435e-09
1.46891e-07
2.03663e-09
1.46704e-07
2.26849e-09
1.46868e-07
2.5273e-09
1.46667e-07
2.83642e-09
1.46829e-07
3.1766e-09
1.4662e-07
3.58313e-09
1.4677e-07
4.02526e-09
1.46558e-07
4.55571e-09
1.46684e-07
5.12645e-09
1.46468e-07
5.81545e-09
1.46559e-07
6.54908e-09
1.46335e-07
7.44162e-09
1.46377e-07
8.38193e-09
1.46135e-07
9.53621e-09
1.46108e-07
1.07388e-08
1.45827e-07
1.22299e-08
1.45706e-07
1.37648e-08
1.45352e-07
1.56892e-08
1.45096e-07
1.76436e-08
1.44615e-07
2.01247e-08
1.44158e-07
2.26044e-08
1.43463e-07
2.57994e-08
1.42706e-07
2.89281e-08
1.41658e-07
3.30352e-08
1.40444e-07
3.69465e-08
1.38828e-07
4.2211e-08
1.36915e-07
4.70282e-08
1.34395e-07
5.37332e-08
1.31428e-07
5.95416e-08
1.27505e-07
6.79053e-08
1.22953e-07
7.48257e-08
1.17069e-07
8.43309e-08
1.09971e-07
9.35099e-08
1.01605e-07
1.03139e-07
9.16151e-08
1.13212e-07
8.00497e-08
1.22923e-07
6.67412e-08
1.3243e-07
5.18346e-08
1.40778e-07
3.54627e-08
1.47841e-07
1.80258e-08
1.52809e-07
1.55458e-07
1.46866e-07
1.12731e-09
1.46911e-07
1.14481e-09
1.46869e-07
1.18079e-09
1.46958e-07
1.23439e-09
1.46877e-07
1.30867e-09
1.47004e-07
1.40166e-09
1.46891e-07
1.5191e-09
1.47051e-07
1.65721e-09
1.46913e-07
1.82544e-09
1.47099e-07
2.01718e-09
1.46947e-07
2.24722e-09
1.47149e-07
2.50438e-09
1.46992e-07
2.81131e-09
1.47203e-07
3.14973e-09
1.4705e-07
3.55377e-09
1.47261e-07
3.99432e-09
1.47119e-07
4.52221e-09
1.47324e-07
5.09207e-09
1.47199e-07
5.77888e-09
1.47389e-07
6.51331e-09
1.47282e-07
7.4049e-09
1.47449e-07
8.34942e-09
1.47356e-07
9.50565e-09
1.47491e-07
1.07189e-08
1.474e-07
1.22177e-08
1.47484e-07
1.37748e-08
1.47372e-07
1.5718e-08
1.47375e-07
1.77144e-08
1.47201e-07
2.02346e-08
1.47072e-07
2.27901e-08
1.46761e-07
2.60605e-08
1.46411e-07
2.93204e-08
1.45839e-07
3.35684e-08
1.45119e-07
3.7697e-08
1.44071e-07
4.32264e-08
1.42746e-07
4.83757e-08
1.40832e-07
5.56163e-08
1.38573e-07
6.18173e-08
1.34957e-07
7.14852e-08
1.31518e-07
7.82739e-08
1.26793e-07
8.90099e-08
1.19966e-07
1.00318e-07
1.11786e-07
1.11279e-07
1.01546e-07
1.23423e-07
8.93172e-08
1.35112e-07
7.48557e-08
1.46855e-07
5.83463e-08
1.57245e-07
4.00212e-08
1.66124e-07
2.03707e-08
1.72414e-07
1.75783e-07
1.46898e-07
1.0982e-09
1.46961e-07
1.11528e-09
1.46936e-07
1.15037e-09
1.47043e-07
1.20269e-09
1.46982e-07
1.27517e-09
1.4713e-07
1.36595e-09
1.4704e-07
1.48057e-09
1.47225e-07
1.61546e-09
1.47114e-07
1.77973e-09
1.4733e-07
1.96712e-09
1.47212e-07
2.19187e-09
1.47452e-07
2.44342e-09
1.47336e-07
2.74354e-09
1.47595e-07
3.07495e-09
1.47495e-07
3.47046e-09
1.47766e-07
3.9025e-09
1.47692e-07
4.41997e-09
1.47974e-07
4.97989e-09
1.47935e-07
5.65438e-09
1.48225e-07
6.37775e-09
1.48228e-07
7.2554e-09
1.48524e-07
8.18862e-09
1.48573e-07
9.33017e-09
1.48873e-07
1.05337e-08
1.48966e-07
1.20192e-08
1.49263e-07
1.35719e-08
1.49389e-07
1.55072e-08
1.49666e-07
1.75113e-08
1.49798e-07
2.00371e-08
1.5002e-07
2.26245e-08
1.50104e-07
2.59287e-08
1.502e-07
2.92654e-08
1.50133e-07
3.36032e-08
1.49973e-07
3.78866e-08
1.49564e-07
4.36167e-08
1.48918e-07
4.90417e-08
1.47807e-07
5.67209e-08
1.46314e-07
6.33247e-08
1.43754e-07
7.40533e-08
1.40983e-07
8.10539e-08
1.36109e-07
4.92181e-08
4.47064e-08
1.29583e-07
5.11843e-08
5.56987e-08
1.21925e-07
5.71283e-08
6.18478e-08
1.11873e-07
6.42845e-08
6.92316e-08
9.95062e-08
7.12152e-08
7.63073e-08
8.44011e-08
7.84919e-08
8.3516e-08
6.65683e-08
8.52949e-08
8.98345e-08
4.61056e-08
9.15093e-08
9.51324e-08
2.36185e-08
9.63089e-08
9.86499e-08
9.93255e-08
1.00135e-07
1.4691e-07
1.05241e-09
1.4699e-07
1.06881e-09
1.46983e-07
1.10248e-09
1.47109e-07
1.1527e-09
1.47067e-07
1.22226e-09
1.47236e-07
1.30944e-09
1.47169e-07
1.41947e-09
1.47378e-07
1.54907e-09
1.47296e-07
1.70681e-09
1.47542e-07
1.88696e-09
1.47458e-07
2.1029e-09
1.47735e-07
2.34495e-09
1.47663e-07
2.63352e-09
1.47969e-07
2.95278e-09
1.47924e-07
3.33343e-09
1.48256e-07
3.75028e-09
1.48253e-07
4.2489e-09
1.48612e-07
4.79023e-09
1.48664e-07
5.44117e-09
1.49053e-07
6.14235e-09
1.49174e-07
6.99107e-09
1.49599e-07
7.89873e-09
1.49801e-07
9.0055e-09
1.50267e-07
1.01812e-08
1.50558e-07
1.16262e-08
1.51071e-07
1.31517e-08
1.51454e-07
1.50422e-08
1.52013e-07
1.7026e-08
1.5248e-07
1.95061e-08
1.53067e-07
2.20929e-08
1.5359e-07
2.53582e-08
1.54156e-07
2.87395e-08
1.54666e-07
3.3057e-08
1.55099e-07
3.74832e-08
1.55464e-07
4.32212e-08
1.5552e-07
4.90075e-08
1.55533e-07
5.6679e-08
1.54689e-07
6.41884e-08
1.54189e-07
7.45164e-08
7.58484e-08
8.40807e-08
7.53417e-08
-4.57699e-08
4.64661e-08
7.51977e-08
-7.29817e-08
7.17952e-08
5.22877e-08
-7.04704e-08
6.86607e-08
5.88518e-08
-6.66627e-08
6.43902e-08
6.64728e-08
-6.18775e-08
5.88049e-08
7.42081e-08
-5.54337e-08
5.15783e-08
8.22746e-08
-4.7335e-08
4.25972e-08
8.99688e-08
-3.74388e-08
3.19225e-08
9.69703e-08
-2.60229e-08
1.982e-08
1.02464e-07
-1.33458e-08
6.72208e-09
1.05908e-07
1.46925e-07
9.90638e-10
1.4702e-07
1.0061e-09
1.4703e-07
1.03784e-09
1.47173e-07
1.08519e-09
1.4715e-07
1.15076e-09
1.47339e-07
1.23299e-09
1.47292e-07
1.33673e-09
1.47526e-07
1.45902e-09
1.47469e-07
1.60782e-09
1.47743e-07
1.7779e-09
1.47691e-07
1.98171e-09
1.48004e-07
2.21042e-09
1.47972e-07
2.48297e-09
1.48323e-07
2.78496e-09
1.48328e-07
3.14484e-09
1.48719e-07
3.53969e-09
1.4878e-07
4.01171e-09
1.49214e-07
4.52538e-09
1.49349e-07
5.14261e-09
1.49836e-07
5.80953e-09
1.50065e-07
6.61601e-09
1.50617e-07
7.48195e-09
1.5096e-07
8.5365e-09
1.51592e-07
9.66265e-09
1.5207e-07
1.10442e-08
1.52801e-07
1.2513e-08
1.53431e-07
1.43284e-08
1.54279e-07
1.62516e-08
1.55074e-07
1.86464e-08
1.56045e-07
2.11772e-08
1.57005e-07
2.43514e-08
1.58083e-07
2.77012e-08
1.59177e-07
3.19315e-08
1.60293e-07
3.63945e-08
1.61434e-07
4.20612e-08
1.62406e-07
4.80546e-08
1.63422e-07
5.5653e-08
1.63818e-07
6.38092e-08
1.64501e-07
7.38243e-08
8.2605e-08
8.53352e-08
8.06647e-08
-4.70358e-08
4.74338e-08
8.22671e-08
-7.93661e-08
7.8436e-08
-5.3244e-08
5.40865e-08
-7.73979e-08
7.5956e-08
-6.05634e-08
6.19175e-08
-7.43231e-08
7.22397e-08
-6.87151e-08
7.07134e-08
-6.98945e-08
6.69241e-08
-7.73014e-08
8.0191e-08
-6.36266e-08
5.95634e-08
-8.61226e-08
9.01098e-08
-5.49566e-08
4.97789e-08
-9.48757e-08
9.99857e-08
-4.40116e-08
3.77191e-08
-1.02895e-07
1.09126e-07
-3.08867e-08
2.36153e-08
-1.09286e-07
1.16501e-07
-1.59568e-08
8.04924e-09
-1.13273e-07
1.21128e-07
1.46941e-07
9.13782e-10
1.47053e-07
9.28065e-10
1.47079e-07
9.57374e-10
1.47238e-07
1.00113e-09
1.47232e-07
1.06169e-09
1.4744e-07
1.13768e-09
1.47415e-07
1.23351e-09
1.47671e-07
1.34657e-09
1.47639e-07
1.48408e-09
1.47941e-07
1.64141e-09
1.4792e-07
1.82985e-09
1.48268e-07
2.04158e-09
1.48275e-07
2.29374e-09
1.4867e-07
2.57361e-09
1.48726e-07
2.90684e-09
1.49173e-07
3.27328e-09
1.49299e-07
3.71082e-09
1.49806e-07
4.18841e-09
1.50026e-07
4.76135e-09
1.50606e-07
5.38291e-09
1.50946e-07
6.13287e-09
1.5162e-07
6.94245e-09
1.52109e-07
7.92535e-09
1.52902e-07
8.98252e-09
1.53571e-07
1.0274e-08
1.54516e-07
1.16603e-08
1.554e-07
1.33637e-08
1.56532e-07
1.51918e-08
1.57667e-07
1.74495e-08
1.5902e-07
1.98781e-08
1.60437e-07
2.28886e-08
1.62032e-07
2.61441e-08
1.63744e-07
3.01861e-08
1.65566e-07
3.45991e-08
1.67539e-07
4.00634e-08
1.69484e-07
4.61284e-08
1.71568e-07
5.35475e-08
1.73354e-07
6.20381e-08
1.75105e-07
7.20524e-08
8.95076e-08
8.42862e-08
8.6663e-08
-4.74444e-08
4.73007e-08
8.97203e-08
-8.63993e-08
8.59546e-08
-5.4794e-08
5.51513e-08
-8.53902e-08
8.44436e-08
-6.32112e-08
6.40724e-08
-8.32826e-08
8.1625e-08
-7.27376e-08
7.43136e-08
-7.96702e-08
7.69997e-08
-8.31698e-08
8.57618e-08
-7.41096e-08
6.98625e-08
-9.38265e-08
9.79927e-08
-6.47534e-08
5.91342e-08
-1.05167e-07
1.10716e-07
-5.26692e-08
4.54683e-08
-1.15847e-07
1.22981e-07
-3.74757e-08
2.88066e-08
-1.24574e-07
1.33174e-07
-1.95487e-08
9.88459e-09
-1.30077e-07
1.39671e-07
1.46955e-07
8.23009e-10
1.4708e-07
8.35891e-10
1.47121e-07
8.62317e-10
1.47295e-07
9.0178e-10
1.47306e-07
9.5639e-10
1.47531e-07
1.02495e-09
1.47524e-07
1.11139e-09
1.478e-07
1.21342e-09
1.47791e-07
1.33749e-09
1.48118e-07
1.47956e-09
1.48125e-07
1.64966e-09
1.48504e-07
1.84098e-09
1.48547e-07
2.06874e-09
1.48982e-07
2.32187e-09
1.49082e-07
2.62309e-09
1.4958e-07
2.95493e-09
1.49764e-07
3.35087e-09
1.50338e-07
3.78405e-09
1.50633e-07
4.30324e-09
1.51301e-07
4.86817e-09
1.51739e-07
5.54898e-09
1.52529e-07
6.28681e-09
1.53148e-07
7.18108e-09
1.54096e-07
8.14806e-09
1.54939e-07
9.3265e-09
1.56091e-07
1.06006e-08
1.57211e-07
1.21605e-08
1.58624e-07
1.38514e-08
1.60081e-07
1.59285e-08
1.61819e-07
1.81943e-08
1.63682e-07
2.09799e-08
1.65811e-07
2.40529e-08
1.68147e-07
2.78203e-08
1.70718e-07
3.20523e-08
1.73572e-07
3.71928e-08
1.76581e-07
4.31342e-08
1.79916e-07
5.02047e-08
1.83215e-07
5.87477e-08
1.86743e-07
6.85198e-08
9.6664e-08
8.1143e-08
9.32315e-08
-4.6772e-08
4.60296e-08
9.748e-08
-9.4151e-08
9.43423e-08
-5.53396e-08
5.50662e-08
-9.44373e-08
9.41879e-08
-6.48049e-08
6.49766e-08
-9.36826e-08
9.27398e-08
-7.58989e-08
7.67703e-08
-9.13036e-08
8.93418e-08
-8.8825e-08
9.07205e-08
-4.31933e-08
-5.20642e-08
4.19673e-08
5.33083e-08
-3.89194e-08
-6.05395e-08
3.71261e-08
6.23508e-08
-3.19237e-08
-6.84151e-08
2.95575e-08
7.08055e-08
-2.2185e-08
-7.48913e-08
1.92303e-08
7.78822e-08
-1.00402e-08
8.21968e-08
-7.88051e-08
6.69695e-09
1.46966e-07
7.19674e-10
1.47104e-07
7.30951e-10
1.47158e-07
7.54081e-10
1.47347e-07
7.88635e-10
1.47372e-07
8.36437e-10
1.47613e-07
8.96479e-10
1.47624e-07
9.72156e-10
1.47919e-07
1.06155e-09
1.47931e-07
1.1702e-09
1.48281e-07
1.29472e-09
1.48314e-07
1.44374e-09
1.48723e-07
1.61154e-09
1.48799e-07
1.81119e-09
1.49271e-07
2.03339e-09
1.49414e-07
2.29762e-09
1.4996e-07
2.58923e-09
1.502e-07
2.93687e-09
1.50835e-07
3.31811e-09
1.51203e-07
3.77449e-09
1.51951e-07
4.27268e-09
1.52486e-07
4.87202e-09
1.53382e-07
5.52436e-09
1.54128e-07
6.31316e-09
1.55218e-07
7.17099e-09
1.56231e-07
8.21304e-09
1.57574e-07
9.34835e-09
1.58923e-07
1.07322e-08
1.60597e-07
1.22479e-08
1.62367e-07
1.40984e-08
1.64468e-07
1.61452e-08
1.66764e-07
1.8641e-08
1.69407e-07
2.14455e-08
1.7235e-07
2.48473e-08
1.75665e-07
2.87606e-08
1.79383e-07
3.34556e-08
1.83491e-07
3.90392e-08
1.8807e-07
4.56144e-08
1.93029e-07
5.3794e-08
1.98382e-07
6.31622e-08
1.03891e-07
7.54872e-08
1.00147e-07
-4.47972e-08
4.32652e-08
1.05497e-07
-1.0252e-07
1.03529e-07
-5.45277e-08
5.34466e-08
-1.04492e-07
1.05184e-07
-6.48474e-08
6.4091e-08
-1.05649e-07
1.05731e-07
-7.73106e-08
7.71739e-08
-1.053e-07
1.04309e-07
-9.21766e-08
9.31278e-08
-5.20874e-08
-5.66064e-08
5.14777e-08
5.72215e-08
-4.82965e-08
-6.70037e-08
4.67992e-08
6.85067e-08
-4.0983e-08
-7.77816e-08
3.85027e-08
8.02844e-08
-2.9396e-08
-8.73207e-08
2.5793e-08
9.09756e-08
-1.35841e-08
9.79077e-08
-9.33879e-08
9.14449e-09
1.46979e-07
6.05349e-10
1.47128e-07
6.14846e-10
1.47193e-07
6.34316e-10
1.47393e-07
6.63414e-10
1.47431e-07
7.03659e-10
1.47686e-07
7.54229e-10
1.47711e-07
8.17952e-10
1.48023e-07
8.93261e-10
1.48052e-07
9.84774e-10
1.48423e-07
1.08972e-09
1.48478e-07
1.21528e-09
1.48911e-07
1.35678e-09
1.49015e-07
1.52507e-09
1.49518e-07
1.71258e-09
1.49698e-07
1.93544e-09
1.50284e-07
2.18177e-09
1.5057e-07
2.4752e-09
1.5126e-07
2.79766e-09
1.51688e-07
3.18326e-09
1.52509e-07
3.60534e-09
1.53123e-07
4.11238e-09
1.54115e-07
4.6663e-09
1.54969e-07
5.33471e-09
1.56187e-07
6.06528e-09
1.57347e-07
6.95014e-09
1.58865e-07
7.92084e-09
1.60416e-07
9.09914e-09
1.62333e-07
1.04019e-08
1.64386e-07
1.19831e-08
1.66829e-07
1.37547e-08
1.69529e-07
1.58974e-08
1.72662e-07
1.83473e-08
1.76194e-07
2.12873e-08
1.80229e-07
2.47471e-08
1.84826e-07
2.8845e-08
1.90017e-07
3.38571e-08
1.95941e-07
3.96877e-08
2.02571e-07
4.71638e-08
2.1004e-07
5.56999e-08
1.11052e-07
6.71958e-08
1.0727e-07
-4.12864e-08
3.89278e-08
1.13483e-07
-1.11285e-07
1.13278e-07
-5.19813e-08
4.99305e-08
-1.15339e-07
1.17255e-07
-6.28502e-08
6.08862e-08
-1.1907e-07
1.20628e-07
-7.64379e-08
7.48465e-08
-1.21817e-07
1.22506e-07
-9.33684e-08
9.2663e-08
-6.29891e-08
-5.90856e-08
6.27884e-08
5.92817e-08
-6.08526e-08
-7.26078e-08
5.96809e-08
7.37799e-08
-5.433e-08
-8.79259e-08
5.17329e-08
9.05564e-08
-4.09805e-08
-1.02898e-07
3.6331e-08
1.07639e-07
-1.96629e-08
1.1977e-07
-1.13269e-07
1.33042e-08
1.46988e-07
4.81767e-10
1.47147e-07
4.89331e-10
1.47222e-07
5.04837e-10
1.47432e-07
5.28016e-10
1.47482e-07
5.60069e-10
1.47748e-07
6.00358e-10
1.47786e-07
6.51117e-10
1.48112e-07
7.1113e-10
1.48157e-07
7.84041e-10
1.48545e-07
8.67702e-10
1.48619e-07
9.67765e-10
1.49074e-07
1.08061e-09
1.49203e-07
1.21479e-09
1.49735e-07
1.36442e-09
1.49946e-07
1.5422e-09
1.50569e-07
1.73892e-09
1.50897e-07
1.97315e-09
1.51632e-07
2.23093e-09
1.52116e-07
2.53903e-09
1.52998e-07
2.8769e-09
1.53685e-07
3.2825e-09
1.54758e-07
3.72669e-09
1.5571e-07
4.26218e-09
1.57037e-07
4.8494e-09
1.58328e-07
5.55969e-09
1.59997e-07
6.34231e-09
1.61727e-07
7.29059e-09
1.63853e-07
8.34521e-09
1.66156e-07
9.62207e-09
1.68897e-07
1.10639e-08
1.71951e-07
1.28024e-08
1.75521e-07
1.48103e-08
1.79571e-07
1.72115e-08
1.84264e-07
2.00729e-08
1.89643e-07
2.34532e-08
1.9586e-07
2.76462e-08
2.03017e-07
3.25299e-08
2.11299e-07
3.88761e-08
2.20815e-07
4.61951e-08
1.17694e-07
5.61496e-08
1.14149e-07
-3.60879e-08
3.2822e-08
1.21027e-07
-1.20017e-07
1.23147e-07
-4.73848e-08
4.4215e-08
-1.26499e-07
1.29914e-07
-5.82651e-08
5.48221e-08
-1.33441e-07
1.36965e-07
-7.23859e-08
6.88495e-08
-1.40404e-07
1.43619e-07
-9.08474e-08
8.76406e-08
-7.60661e-08
-5.91637e-08
7.66466e-08
5.85668e-08
-7.73674e-08
-7.62567e-08
7.70887e-08
7.65256e-08
-7.44547e-08
-9.8051e-08
7.29124e-08
9.96274e-08
-6.07325e-08
-1.22761e-07
5.4872e-08
1.28779e-07
-3.13535e-08
1.52504e-07
-1.42389e-07
2.14825e-08
1.46994e-07
3.50817e-10
1.4716e-07
3.56328e-10
1.47242e-07
3.67625e-10
1.47461e-07
3.84516e-10
1.47518e-07
4.07868e-10
1.47794e-07
4.37231e-10
1.47842e-07
4.74215e-10
1.48178e-07
5.17961e-10
1.48236e-07
5.71093e-10
1.48636e-07
6.32093e-10
1.48726e-07
7.05026e-10
1.49197e-07
7.87337e-10
1.49345e-07
8.85155e-10
1.49898e-07
9.94351e-10
1.50133e-07
1.124e-09
1.50783e-07
1.26766e-09
1.51142e-07
1.43854e-09
1.51915e-07
1.62696e-09
1.5244e-07
1.85184e-09
1.5337e-07
2.0991e-09
1.54113e-07
2.39534e-09
1.55252e-07
2.72093e-09
1.56277e-07
3.11237e-09
1.57695e-07
3.54369e-09
1.59089e-07
4.06348e-09
1.60882e-07
4.63993e-09
1.62756e-07
5.33491e-09
1.65056e-07
6.11455e-09
1.67565e-07
7.05231e-09
1.70556e-07
8.12325e-09
1.73912e-07
9.40393e-09
1.77851e-07
1.09044e-08
1.82355e-07
1.26817e-08
1.8761e-07
1.48363e-08
1.93696e-07
1.73572e-08
2.00801e-07
2.05442e-08
2.09104e-07
2.42308e-08
2.18858e-07
2.91111e-08
2.30331e-07
3.47417e-08
1.23473e-07
4.25182e-08
1.20463e-07
-2.91519e-08
2.50664e-08
1.27619e-07
-1.2817e-07
1.3249e-07
-4.04798e-08
3.61383e-08
-1.37229e-07
1.42314e-07
-5.05939e-08
4.5501e-08
-1.47802e-07
1.53699e-07
-6.42017e-08
5.83158e-08
-1.59937e-07
1.66551e-07
-8.28616e-08
7.62823e-08
-9.08047e-08
-5.51891e-08
9.26361e-08
5.3324e-08
-9.79466e-08
-7.51364e-08
9.93583e-08
7.36856e-08
-1.01799e-07
-1.04148e-07
1.04405e-07