/*--------------------------------*- C++ -*----------------------------------*\
| =========                 |                                                 |
| \\      /  F ield         | foam-extend: Open Source CFD                    |
|  \\    /   O peration     | Version:     4.0                                |
|   \\  /    A nd           | Web:         http://www.foam-extend.org         |
|    \\/     M anipulation  |                                                 |
\*---------------------------------------------------------------------------*/
FoamFile
{
    version     2.0;
    format      ascii;
    class       volVectorField;
    location    "2.00098e-05";
    object      U;
}
// * * * * * * * * * * * * * * * * * * * * * * * * * * * * * * * * * * * * * //

dimensions      [0 1 -1 0 0 0 0];

internalField   nonuniform List<vector> 
28770
(
(4.85311 0.00233423 0)
(5.13665 0.00236992 0)
(4.84573 0.00244401 0)
(5.12302 0.00255334 0)
(4.84047 0.00270627 0)
(5.1056 0.00289539 0)
(4.83637 0.00313696 0)
(5.08412 0.0034164 0)
(4.83226 0.00376212 0)
(5.05829 0.00414707 0)
(4.82673 0.00461921 0)
(5.02778 0.00512985 0)
(4.81816 0.00575885 0)
(4.99207 0.00642067 0)
(4.80472 0.00724707 0)
(4.95034 0.00809108 0)
(4.78433 0.00916779 0)
(4.90139 0.0102305 0)
(4.75464 0.0116254 0)
(4.8435 0.0129486 0)
(4.71297 0.0147466 0)
(4.77435 0.0163771 0)
(4.65622 0.0186819 0)
(4.69093 0.0206703 0)
(4.58081 0.023603 0)
(4.58943 0.0260035 0)
(4.48252 0.0296975 0)
(4.46524 0.0325671 0)
(4.35652 0.0371562 0)
(4.31292 0.040554 0)
(4.19725 0.0461504 0)
(4.12629 0.050136 0)
(3.9986 0.0567985 0)
(3.89868 0.0614258 0)
(3.7541 0.0691184 0)
(3.62332 0.0744202 0)
(3.45741 0.0829695 0)
(3.29397 0.0889226 0)
(3.10305 0.0979905 0)
(2.90587 0.104455 0)
(2.68747 0.113544 0)
(2.45682 0.120191 0)
(2.21029 0.128682 0)
(1.94839 0.134957 0)
(1.67556 0.142171 0)
(1.387 0.147378 0)
(1.09249 0.15265 0)
(0.784342 0.156107 0)
(0.475489 0.158896 0)
(0.156937 0.160109 0)
(4.85314 0.00695123 0)
(5.13676 0.00705723 0)
(4.84591 0.00727569 0)
(5.12328 0.00760004 0)
(4.8408 0.00805028 0)
(5.10603 0.00861166 0)
(4.83688 0.00932099 0)
(5.08473 0.0101516 0)
(4.83297 0.0111627 0)
(5.05913 0.0123097 0)
(4.82769 0.0136825 0)
(5.0289 0.0152104 0)
(4.81942 0.0170247 0)
(4.99353 0.0190178 0)
(4.80635 0.0213765 0)
(4.95222 0.0239425 0)
(4.78642 0.0269745 0)
(4.90379 0.0302482 0)
(4.7573 0.0341117 0)
(4.84655 0.038258 0)
(4.71633 0.0431433 0)
(4.7782 0.0483595 0)
(4.66043 0.054489 0)
(4.69575 0.0610045 0)
(4.58603 0.0686303 0)
(4.5954 0.0767002 0)
(4.48895 0.0860952 0)
(4.47255 0.0959869 0)
(4.36434 0.107426 0)
(4.32173 0.119393 0)
(4.20663 0.133119 0)
(4.13672 0.14736 0)
(4.00966 0.163528 0)
(3.91074 0.180128 0)
(3.76683 0.198724 0)
(3.63688 0.217577 0)
(3.47161 0.238319 0)
(3.30868 0.259035 0)
(3.11826 0.281267 0)
(2.9211 0.303079 0)
(2.70287 0.325707 0)
(2.47164 0.347402 0)
(2.22475 0.36891 0)
(1.9616 0.388838 0)
(1.68772 0.407414 0)
(1.39726 0.423648 0)
(1.10103 0.437413 0)
(0.790458 0.448084 0)
(0.479407 0.455435 0)
(0.158125 0.459163 0)
(4.85321 0.0114804 0)
(5.13697 0.0116559 0)
(4.84626 0.0120183 0)
(5.12378 0.0125552 0)
(4.84146 0.0133025 0)
(5.10685 0.0142314 0)
(4.83788 0.0154102 0)
(5.08592 0.016784 0)
(4.83437 0.0184672 0)
(5.06076 0.0203629 0)
(4.82957 0.022654 0)
(5.03106 0.0251754 0)
(4.82189 0.028214 0)
(4.99633 0.0314955 0)
(4.80954 0.0354642 0)
(4.95582 0.0396746 0)
(4.7905 0.0448067 0)
(4.90837 0.0501528 0)
(4.76248 0.0567412 0)
(4.85234 0.0634709 0)
(4.72286 0.0718754 0)
(4.78546 0.0802791 0)
(4.66861 0.0909307 0)
(4.70478 0.10134 0)
(4.59618 0.114737 0)
(4.60653 0.127517 0)
(4.50141 0.144209 0)
(4.48613 0.159744 0)
(4.37943 0.180289 0)
(4.33808 0.198958 0)
(4.22464 0.223848 0)
(4.15606 0.245981 0)
(4.03069 0.275521 0)
(3.93314 0.301332 0)
(3.79077 0.335472 0)
(3.66209 0.364958 0)
(3.498 0.403094 0)
(3.33602 0.435876 0)
(3.14617 0.476675 0)
(2.94938 0.511774 0)
(2.73087 0.553116 0)
(2.49912 0.588683 0)
(2.25086 0.627773 0)
(1.98609 0.660963 0)
(1.70964 0.694562 0)
(1.41637 0.721899 0)
(1.11641 0.746698 0)
(0.801988 0.764782 0)
(0.486336 0.77799 0)
(0.160587 0.784324 0)
(4.85332 0.0158228 0)
(5.13729 0.0160646 0)
(4.84679 0.0165631 0)
(5.12453 0.0173027 0)
(4.84245 0.0183303 0)
(5.10809 0.0196106 0)
(4.83938 0.0212304 0)
(5.08772 0.0231247 0)
(4.83648 0.0254356 0)
(5.06323 0.0280517 0)
(4.8324 0.0311932 0)
(5.03434 0.0346777 0)
(4.82561 0.0388366 0)
(5.00062 0.043381 0)
(4.81436 0.0487997 0)
(4.96137 0.0546478 0)
(4.79668 0.0616333 0)
(4.91548 0.0690885 0)
(4.77034 0.0780221 0)
(4.86137 0.0874551 0)
(4.73278 0.0988006 0)
(4.79686 0.110654 0)
(4.68105 0.124963 0)
(4.71906 0.139752 0)
(4.61166 0.157658 0)
(4.62426 0.17596 0)
(4.52051 0.198162 0)
(4.50788 0.220592 0)
(4.40274 0.247809 0)
(4.36438 0.274969 0)
(4.25268 0.307857 0)
(4.18731 0.340256 0)
(4.06386 0.379266 0)
(3.96945 0.417197 0)
(3.82913 0.46237 0)
(3.70309 0.505735 0)
(3.54105 0.556432 0)
(3.38073 0.604522 0)
(3.19257 0.659153 0)
(2.99595 0.710364 0)
(2.77818 0.766216 0)
(2.54474 0.817791 0)
(2.29553 0.871084 0)
(2.027 0.919019 0)
(1.74739 0.965226 0)
(1.44831 1.00466 0)
(1.14302 1.03902 0)
(0.821098 1.06513 0)
(0.498543 1.08353 0)
(0.164327 1.09268 0)
(4.85345 0.0199435 0)
(5.1377 0.0202489 0)
(4.84747 0.0208787 0)
(5.12551 0.0218125 0)
(4.84372 0.0231115 0)
(5.10969 0.0247277 0)
(4.84132 0.0267766 0)
(5.09004 0.0291679 0)
(4.8392 0.0320939 0)
(5.0664 0.0353957 0)
(4.83605 0.0393788 0)
(5.03854 0.0437747 0)
(4.83041 0.049058 0)
(5.00608 0.0547866 0)
(4.82057 0.0616882 0)
(4.96839 0.069051 0)
(4.80464 0.0779779 0)
(4.92442 0.0873477 0)
(4.78047 0.0988117 0)
(4.87269 0.11064 0)
(4.74558 0.125273 0)
(4.81108 0.140095 0)
(4.6971 0.158657 0)
(4.73679 0.177092 0)
(4.63163 0.200476 0)
(4.6462 0.223215 0)
(4.54511 0.252422 0)
(4.53474 0.280208 0)
(4.43268 0.316284 0)
(4.39687 0.349863 0)
(4.28856 0.393789 0)
(4.22599 0.433833 0)
(4.10603 0.486313 0)
(4.01452 0.533302 0)
(3.87747 0.594455 0)
(3.75419 0.648504 0)
(3.59473 0.717459 0)
(3.4366 0.778053 0)
(3.24981 0.852547 0)
(3.05422 0.918115 0)
(2.83605 0.994312 0)
(2.6018 1.06159 0)
(2.34998 1.13432 0)
(2.07827 1.19781 0)
(1.7935 1.26091 0)
(1.48863 1.31369 0)
(1.17562 1.36065 0)
(0.845564 1.39579 0)
(0.513314 1.42094 0)
(0.169548 1.43329 0)
(4.85361 0.0237518 0)
(5.1382 0.0241156 0)
(4.84832 0.0248652 0)
(5.12672 0.025978 0)
(4.8453 0.0275238 0)
(5.11168 0.0294503 0)
(4.84373 0.0318881 0)
(5.09293 0.0347398 0)
(4.84258 0.0382198 0)
(5.07036 0.0421602 0)
(4.8406 0.0468951 0)
(5.04382 0.0521473 0)
(4.83639 0.0584232 0)
(5.01299 0.0652791 0)
(4.82833 0.0734687 0)
(4.97732 0.082301 0)
(4.8146 0.09288 0)
(4.93588 0.104155 0)
(4.79315 0.117719 0)
(4.88728 0.132008 0)
(4.76162 0.149289 0)
(4.82955 0.167282 0)
(4.71728 0.189164 0)
(4.76001 0.211671 0)
(4.65682 0.239187 0)
(4.67512 0.267132 0)
(4.57631 0.301453 0)
(4.57041 0.335842 0)
(4.47094 0.378214 0)
(4.44027 0.420074 0)
(4.3349 0.471705 0)
(4.27791 0.521968 0)
(4.16125 0.58381 0)
(4.07534 0.643139 0)
(3.94193 0.715543 0)
(3.82353 0.784068 0)
(3.6679 0.866305 0)
(3.513 0.943253 0)
(3.32972 1.03296 0)
(3.13476 1.11616 0)
(2.91867 1.20894 0)
(2.68183 1.29417 0)
(2.42891 1.38365 0)
(2.15096 1.46421 0)
(1.86084 1.54266 0)
(1.54597 1.60989 0)
(1.22341 1.66883 0)
(0.880133 1.71382 0)
(0.535267 1.74561 0)
(0.176417 1.76148 0)
(4.85381 0.0272182 0)
(5.13879 0.0276358 0)
(4.8493 0.0284966 0)
(5.12811 0.0297739 0)
(4.84712 0.0315496 0)
(5.11396 0.033761 0)
(4.8465 0.0365628 0)
(5.09624 0.0398367 0)
(4.84646 0.0438394 0)
(5.07489 0.0483637 0)
(4.84583 0.0538159 0)
(5.04983 0.0598461 0)
(4.84327 0.0670838 0)
(5.02082 0.0749541 0)
(4.83724 0.0844183 0)
(4.98739 0.0945538 0)
(4.82604 0.106812 0)
(4.94874 0.119743 0)
(4.80774 0.135512 0)
(4.9036 0.151887 0)
(4.78012 0.172063 0)
(4.85012 0.19266 0)
(4.74056 0.218334 0)
(4.78577 0.244071 0)
(4.68594 0.276546 0)
(4.70716 0.308469 0)
(4.61239 0.349247 0)
(4.60991 0.388506 0)
(4.51516 0.439231 0)
(4.48842 0.487022 0)
(4.38833 0.549346 0)
(4.33576 0.606806 0)
(4.22467 0.68212 0)
(4.14351 0.750174 0)
(4.01546 0.839141 0)
(3.90181 0.918285 0)
(3.7506 1.02015 0)
(3.59979 1.11013 0)
(3.41911 1.22188 0)
(3.22653 1.32115 0)
(3.01036 1.43703 0)
(2.77288 1.5414 0)
(2.51648 1.65353 0)
(2.23397 1.75408 0)
(1.93614 1.85284 0)
(1.61218 1.93774 0)
(1.27739 2.01225 0)
(0.920749 2.06941 0)
(0.559984 2.1097 0)
(0.185083 2.12991 0)
(4.85402 0.0302641 0)
(5.13946 0.0307289 0)
(4.85041 0.0316862 0)
(5.12971 0.0331079 0)
(4.8492 0.0350826 0)
(5.11659 0.037545 0)
(4.84968 0.0406605 0)
(5.10005 0.0443079 0)
(4.85092 0.0487584 0)
(5.08013 0.0538027 0)
(4.85185 0.0598641 0)
(5.05681 0.066595 0)
(4.85119 0.0746398 0)
(5.02996 0.0834387 0)
(4.84752 0.093955 0)
(4.99924 0.105311 0)
(4.83926 0.118926 0)
(4.96398 0.133456 0)
(4.82462 0.150964 0)
(4.92307 0.169431 0)
(4.80155 0.19182 0)
(4.87486 0.215156 0)
(4.76762 0.243639 0)
(4.81701 0.272957 0)
(4.71988 0.308986 0)
(4.74631 0.345585 0)
(4.65468 0.390856 0)
(4.65852 0.436194 0)
(4.5674 0.492598 0)
(4.54809 0.548231 0)
(4.45219 0.617737 0)
(4.40792 0.685189 0)
(4.30163 0.769585 0)
(4.22909 0.850137 0)
(4.10654 0.950552 0)
(4.00077 1.04491 0)
(3.85575 1.16106 0)
(3.71053 1.26887 0)
(3.53633 1.398 0)
(3.34542 1.51713 0)
(3.13433 1.65307 0)
(2.89382 1.77832 0)
(2.63716 1.91153 0)
(2.34611 2.03292 0)
(2.04068 2.1518 0)
(1.70207 2.25533 0)
(1.35233 2.34623 0)
(0.975552 2.41667 0)
(0.594507 2.46634 0)
(0.196199 2.49142 0)
(4.85426 0.0328674 0)
(5.14018 0.033373 0)
(4.85163 0.0344147 0)
(5.13144 0.0359616 0)
(4.85146 0.0381109 0)
(5.11942 0.0407904 0)
(4.85312 0.044183 0)
(5.10417 0.0481528 0)
(4.85576 0.0530025 0)
(5.08577 0.0584941 0)
(4.85836 0.0651058 0)
(5.06429 0.0724355 0)
(4.85976 0.0812226 0)
(5.03973 0.0908067 0)
(4.85866 0.102314 0)
(5.01184 0.114686 0)
(4.8536 0.12962 0)
(4.98011 0.145453 0)
(4.84296 0.164714 0)
(4.9436 0.18484 0)
(4.82489 0.209565 0)
(4.90086 0.235002 0)
(4.79716 0.266601 0)
(4.84976 0.29857 0)
(4.75705 0.338765 0)
(4.78733 0.378695 0)
(4.70111 0.429539 0)
(4.70953 0.479052 0)
(4.62486 0.542905 0)
(4.61095 0.603756 0)
(4.52244 0.683185 0)
(4.48444 0.757143 0)
(4.38618 0.854647 0)
(4.3207 0.943306 0)
(4.20617 1.06075 0)
(4.10793 1.16529 0)
(3.96989 1.30281 0)
(3.83179 1.42381 0)
(3.66219 1.57813 0)
(3.47627 1.71526 0)
(3.26611 1.87816 0)
(3.02596 2.02831 0)
(2.76578 2.18891 0)
(2.46923 2.33796 0)
(2.15392 2.48268 0)
(1.80256 2.61139 0)
(1.43536 2.72295 0)
(1.03836 2.81097 0)
(0.633172 2.8722 0)
(0.209634 2.90359 0)
(4.85452 0.0349669 0)
(5.14097 0.0355056 0)
(4.85295 0.0366144 0)
(5.13333 0.0382626 0)
(4.85393 0.0405506 0)
(5.12253 0.0434067 0)
(4.85689 0.0470185 0)
(5.10869 0.0512521 0)
(4.86105 0.0564159 0)
(5.09198 0.0622769 0)
(4.8655 0.0693178 0)
(5.07259 0.0771497 0)
(4.86918 0.0865086 0)
(5.05062 0.0967655 0)
(4.8709 0.109024 0)
(5.02598 0.122293 0)
(4.86939 0.138206 0)
(4.99834 0.155232 0)
(4.86319 0.175763 0)
(4.96699 0.197485 0)
(4.85067 0.223852 0)
(4.93071 0.251428 0)
(4.82986 0.285155 0)
(4.88767 0.320002 0)
(4.79834 0.362962 0)
(4.83519 0.406772 0)
(4.75295 0.461229 0)
(4.76952 0.515972 0)
(4.68951 0.584583 0)
(4.68545 0.652464 0)
(4.60238 0.73821 0)
(4.57581 0.821551 0)
(4.48392 0.92751 0)
(4.43089 1.02852 0)
(4.3239 1.15735 0)
(4.2378 1.27777 0)
(4.10889 1.43062 0)
(3.98012 1.57124 0)
(3.82171 1.74589 0)
(3.6392 1.90579 0)
(3.44086 2.09425 0)
(3.1981 2.26897 0)
(2.94036 2.45719 0)
(2.63377 2.63277 0)
(2.30841 2.80527 0)
(1.93733 2.95967 0)
(1.54776 3.09526 0)
(1.1217 3.20291 0)
(0.685194 3.27859 0)
(0.226928 3.31744 0)
(4.85479 0.0365492 0)
(5.14179 0.0371133 0)
(4.85433 0.0382745 0)
(5.13529 0.0400006 0)
(4.8565 0.0423972 0)
(5.12576 0.0453889 0)
(4.8608 0.0491738 0)
(5.11337 0.0536097 0)
(4.86655 0.0590243 0)
(5.0984 0.065168 0)
(4.87292 0.0725575 0)
(5.08113 0.080771 0)
(4.87897 0.0906054 0)
(5.06178 0.101368 0)
(4.88365 0.114271 0)
(5.04042 0.128203 0)
(4.88585 0.144987 0)
(5.01689 0.162879 0)
(4.88434 0.184592 0)
(4.99069 0.20744 0)
(4.87771 0.235422 0)
(4.96089 0.264462 0)
(4.8643 0.300407 0)
(4.92594 0.33716 0)
(4.84201 0.383188 0)
(4.88355 0.429486 0)
(4.80804 0.488215 0)
(4.83031 0.546216 0)
(4.75851 0.620812 0)
(4.76137 0.692957 0)
(4.688 0.787141 0)
(4.6698 0.876032 0)
(4.58884 0.993936 0)
(4.54575 1.10208 0)
(4.45023 1.24778 0)
(4.37551 1.37728 0)
(4.25725 1.55341 0)
(4.1405 1.70593 0)
(3.98977 1.91039 0)
(3.81737 2.08858 0)
(3.62172 2.30859 0)
(3.38134 2.51828 0)
(3.122 2.74015 0)
(2.81006 2.95626 0)
(2.474 3.16338 0)
(2.08651 3.35543 0)
(1.67354 3.52044 0)
(1.21787 3.65465 0)
(0.745321 3.74724 0)
(0.247684 3.79568 0)
(4.85507 0.0375732 0)
(5.14266 0.038154 0)
(4.85578 0.0393489 0)
(5.13737 0.0411265 0)
(4.85921 0.0435927 0)
(5.12917 0.0466747 0)
(4.86494 0.0505702 0)
(5.11833 0.0551425 0)
(4.87237 0.0607169 0)
(5.10523 0.0670545 0)
(4.88078 0.0746645 0)
(5.09026 0.083147 0)
(4.88934 0.093279 0)
(5.07379 0.104411 0)
(4.89718 0.117712 0)
(5.05606 0.132152 0)
(4.90334 0.149465 0)
(5.03712 0.168059 0)
(4.90682 0.190479 0)
(5.01676 0.214304 0)
(4.9065 0.243233 0)
(4.99434 0.273645 0)
(4.90104 0.310871 0)
(4.96872 0.349566 0)
(4.88874 0.39735 0)
(4.93803 0.446414 0)
(4.86724 0.507584 0)
(4.89936 0.569541 0)
(4.83319 0.647588 0)
(4.84831 0.725404 0)
(4.78164 0.82454 0)
(4.77829 0.921547 0)
(4.70526 1.04665 0)
(4.67944 1.16634 0)
(4.59336 1.32262 0)
(4.53705 1.46823 0)
(4.43069 1.6601 0)
(4.32966 1.83424 0)
(4.19638 2.06237 0)
(4.0291 2.26712 0)
(3.8616 2.52191 0)
(3.62066 2.75935 0)
(3.36921 3.01761 0)
(3.04818 3.26843 0)
(2.69926 3.51497 0)
(2.28694 3.74471 0)
(1.84074 3.94713 0)
(1.34377 4.11313 0)
(0.823287 4.22994 0)
(0.274357 4.29115 0)
(4.85536 0.0380368 0)
(5.14353 0.0386258 0)
(4.85724 0.0398376 0)
(5.13945 0.0416407 0)
(4.86193 0.0441422 0)
(5.13259 0.0472692 0)
(4.8691 0.051222 0)
(5.1233 0.0558628 0)
(4.87822 0.0615224 0)
(5.11206 0.0679581 0)
(4.88868 0.0756906 0)
(5.09935 0.0843099 0)
(4.89979 0.0946162 0)
(5.0857 0.105937 0)
(4.91081 0.119486 0)
(5.07151 0.134185 0)
(4.92101 0.151854 0)
(5.05705 0.170807 0)
(4.92962 0.193741 0)
(5.04235 0.218064 0)
(4.93581 0.247745 0)
(5.02712 0.278858 0)
(4.93864 0.317196 0)
(5.01062 0.356888 0)
(4.93684 0.406331 0)
(4.99149 0.456834 0)
(4.9286 0.520507 0)
(4.9674 0.584556 0)
(4.91113 0.666421 0)
(4.93464 0.747278 0)
(4.88006 0.852322 0)
(4.88728 0.95368 0)
(4.82854 1.0881 0)
(4.81597 1.21373 0)
(4.74584 1.38506 0)
(4.70597 1.53802 0)
(4.61564 1.75455 0)
(4.53439 1.9363 0)
(4.41364 2.20274 0)
(4.26734 2.41676 0)
(4.1037 2.70644 0)
(3.86671 2.9999 0)
(3.62048 3.29875 0)
(3.29707 3.6112 0)
(2.94037 3.90689 0)
(2.50966 4.19463 0)
(2.03429 4.4421 0)
(1.49478 4.64923 0)
(0.919635 4.79251 0)
(0.307619 4.86864 0)
(4.85565 0.0379201 0)
(5.14442 0.0385084 0)
(4.85873 0.0397177 0)
(5.14158 0.0415186 0)
(4.86472 0.0440157 0)
(5.1361 0.0471398 0)
(4.87335 0.0510864 0)
(5.12842 0.0557256 0)
(4.88421 0.0613781 0)
(5.11911 0.0678166 0)
(4.89679 0.075543 0)
(5.1088 0.0841753 0)
(4.91052 0.0944799 0)
(5.09814 0.105834 0)
(4.92484 0.119391 0)
(5.08775 0.134163 0)
(4.9392 0.151862 0)
(5.07814 0.170954 0)
(4.95309 0.193959 0)
(5.06964 0.218538 0)
(4.96603 0.248367 0)
(5.06234 0.279932 0)
(4.97745 0.318556 0)
(5.056 0.359026 0)
(4.9866 0.409 0)
(5.04983 0.460814 0)
(4.99231 0.525445 0)
(5.04223 0.591673 0)
(4.99253 0.67523 0)
(5.03034 0.759669 0)
(4.98374 0.867642 0)
(5.00916 0.974846 0)
(4.9599 1.11425 0)
(4.97021 1.24935 0)
(4.91089 1.42901 0)
(4.89886 1.59718 0)
(4.82068 1.82765 0)
(4.76851 2.03313 0)
(4.66684 2.32426 0)
(4.52231 2.57163 0)
(4.43259 2.91563 0)
(4.20063 3.23408 0)
(3.96778 3.57715 0)
(3.64365 3.93622 0)
(3.27054 4.28797 0)
(2.81101 4.63399 0)
(2.28587 4.94309 0)
(1.68689 5.20684 0)
(1.03812 5.39475 0)
(0.348897 5.49524 0)
(4.85593 0.0372336 0)
(5.14529 0.0378123 0)
(4.86018 0.0390016 0)
(5.14366 0.0407734 0)
(4.86744 0.0432295 0)
(5.13951 0.046304 0)
(4.8775 0.0501872 0)
(5.13338 0.0547543 0)
(4.89006 0.0603188 0)
(5.12592 0.0666609 0)
(4.9047 0.0742722 0)
(5.1179 0.0827817 0)
(4.921 0.0929418 0)
(5.11009 0.104146 0)
(4.93855 0.117529 0)
(5.1033 0.132123 0)
(4.95703 0.149621 0)
(5.09827 0.168514 0)
(4.97621 0.191302 0)
(5.09562 0.215678 0)
(4.99593 0.245297 0)
(5.09584 0.276691 0)
(5.01609 0.315159 0)
(5.09918 0.355559 0)
(5.03651 0.405522 0)
(5.1055 0.457497 0)
(5.05673 0.522429 0)
(5.11406 0.589279 0)
(5.07562 0.673753 0)
(5.12304 0.759659 0)
(5.09075 0.869735 0)
(5.12875 0.979833 0)
(5.09732 1.12366 0)
(5.12417 1.26377 0)
(5.08642 1.45276 0)
(5.0963 1.62786 0)
(5.0425 1.88011 0)
(5.02065 2.08804 0)
(4.94091 2.44143 0)
(4.84638 2.64672 0)
(4.75234 3.01835 0)
(4.51444 3.45373 0)
(4.30798 3.84144 0)
(3.99307 4.29195 0)
(3.62359 4.71954 0)
(3.15113 5.15632 0)
(2.59519 5.53992 0)
(1.93702 5.8681 0)
(1.20202 6.09954 0)
(0.406017 6.22366 0)
(4.85621 0.0359794 0)
(5.14616 0.0365395 0)
(4.86163 0.0376902 0)
(5.14572 0.0394054 0)
(4.87013 0.041782 0)
(5.14291 0.0447592 0)
(4.88163 0.0485178 0)
(5.13834 0.0529426 0)
(4.89587 0.0583306 0)
(5.13277 0.0644794 0)
(4.91257 0.0718533 0)
(5.12708 0.0801115 0)
(4.93144 0.0899622 0)
(5.12222 0.100849 0)
(4.95223 0.113837 0)
(5.11918 0.128042 0)
(4.97483 0.145047 0)
(5.11895 0.163476 0)
(4.99928 0.18566 0)
(5.12251 0.209501 0)
(5.02577 0.238401 0)
(5.13075 0.269212 0)
(5.05467 0.306858 0)
(5.14448 0.346682 0)
(5.08642 0.395767 0)
(5.1643 0.447287 0)
(5.12134 0.511396 0)
(5.1904 0.578134 0)
(5.15936 0.662065 0)
(5.22224 0.748627 0)
(5.19933 0.858858 0)
(5.2578 0.971179 0)
(5.23791 1.11657 0)
(5.29246 1.26199 0)
(5.2674 1.45502 0)
(5.3173 1.64157 0)
(5.27127 1.90127 0)
(5.31813 2.13361 0)
(5.21388 2.49539 0)
(5.28402 2.75693 0)
(5.10409 3.14124 0)
(4.88649 3.39163 0)
(4.70602 3.79221 0)
(4.43391 4.28252 0)
(4.09171 4.7618 0)
(3.63261 5.27106 0)
(3.0548 5.75957 0)
(2.35238 6.2169 0)
(1.54904 6.58114 0)
(0.667466 6.82074 0)
(4.85648 0.034181 0)
(5.14697 0.034714 0)
(4.86299 0.0358086 0)
(5.14766 0.0374411 0)
(4.87268 0.0397023 0)
(5.14611 0.0425366 0)
(4.88551 0.0461136 0)
(5.14299 0.0503278 0)
(4.90135 0.0554575 0)
(5.13917 0.0613171 0)
(4.92 0.0683412 0)
(5.13563 0.0762172 0)
(4.9413 0.085607 0)
(5.13347 0.0960013 0)
(4.96518 0.108393 0)
(5.13386 0.121974 0)
(4.99173 0.138216 0)
(5.13803 0.15587 0)
(5.02128 0.177088 0)
(5.14726 0.199985 0)
(5.0544 0.227674 0)
(5.16287 0.257365 0)
(5.09195 0.293514 0)
(5.18624 0.33206 0)
(5.13502 0.379322 0)
(5.21872 0.429485 0)
(5.18485 0.491424 0)
(5.26159 0.556921 0)
(5.24256 0.638354 0)
(5.31574 0.724216 0)
(5.30867 0.831699 0)
(5.38109 0.944767 0)
(5.38208 1.08725 0)
(5.45557 1.23687 0)
(5.45809 1.42641 0)
(5.53326 1.62557 0)
(5.52429 1.87734 0)
(5.6024 2.14558 0)
(5.55124 2.47234 0)
(5.64882 2.8484 0)
(5.61182 3.2172 0)
(5.32602 3.51913 0)
(5.18461 4.0204 0)
(4.96221 4.58148 0)
(4.64281 5.17424 0)
(4.19373 5.78413 0)
(3.56645 6.41384 0)
(2.78113 7.00688 0)
(1.85076 7.49081 0)
(0.807923 7.80275 0)
(4.85674 0.0318615 0)
(5.14775 0.0323591 0)
(4.8643 0.0333806 0)
(5.14953 0.0349048 0)
(4.87512 0.0370155 0)
(5.14919 0.0396625 0)
(4.88925 0.0430022 0)
(5.14749 0.0469395 0)
(4.90663 0.051731 0)
(5.14539 0.057209 0)
(4.92716 0.0637738 0)
(5.14398 0.0711427 0)
(4.95081 0.0799258 0)
(5.14453 0.0896612 0)
(4.97766 0.101265 0)
(5.14838 0.114002 0)
(5.00802 0.129234 0)
(5.15701 0.145819 0)
(5.04247 0.165756 0)
(5.17204 0.187313 0)
(5.08195 0.213397 0)
(5.19522 0.241427 0)
(5.12781 0.275592 0)
(5.2285 0.31211 0)
(5.18181 0.356967 0)
(5.27406 0.404706 0)
(5.24612 0.46381 0)
(5.33427 0.526509 0)
(5.32317 0.604748 0)
(5.41155 0.687584 0)
(5.41528 0.791743 0)
(5.50802 0.90196 0)
(5.52393 1.04154 0)
(5.62456 1.18941 0)
(5.64801 1.37769 0)
(5.75884 1.57803 0)
(5.78044 1.8329 0)
(5.90074 2.10831 0)
(5.90206 2.44935 0)
(6.01996 2.84051 0)
(6.13124 3.21865 0)
(5.81806 3.61342 0)
(5.74118 4.19287 0)
(5.58306 4.85134 0)
(5.31682 5.57136 0)
(4.92308 6.27971 0)
(4.22753 7.10475 0)
(3.34722 7.90305 0)
(2.2589 8.56724 0)
(0.998294 8.996 0)
(4.85697 0.0290573 0)
(5.14845 0.0295118 0)
(4.86548 0.0304444 0)
(5.15122 0.0318367 0)
(4.87734 0.0337638 0)
(5.15197 0.0361823 0)
(4.89264 0.0392323 0)
(5.15154 0.0428311 0)
(4.91141 0.047208 0)
(5.15096 0.0522179 0)
(4.93365 0.0582169 0)
(5.15144 0.0649615 0)
(4.95943 0.0729913 0)
(5.15436 0.0819114 0)
(4.98901 0.0925258 0)
(5.16125 0.104214 0)
(5.02288 0.118156 0)
(5.1738 0.133405 0)
(5.06191 0.15167 0)
(5.19391 0.171544 0)
(5.10738 0.195465 0)
(5.22377 0.221398 0)
(5.16116 0.25277 0)
(5.26592 0.286718 0)
(5.22569 0.327975 0)
(5.32334 0.372636 0)
(5.30412 0.42711 0)
(5.3996 0.486264 0)
(5.40028 0.558564 0)
(5.49884 0.637604 0)
(5.51858 0.734176 0)
(5.62568 0.840961 0)
(5.66354 0.970887 0)
(5.78472 1.11717 0)
(5.83862 1.29323 0)
(5.97898 1.49714 0)
(6.04352 1.73698 0)
(6.206 2.02749 0)
(6.2682 2.35423 0)
(6.44617 2.77843 0)
(6.64878 3.14817 0)
(6.36315 3.63851 0)
(6.37607 4.2905 0)
(6.30725 5.06267 0)
(6.11173 5.97963 0)
(5.73334 7.07368 0)
(5.10672 8.18718 0)
(4.10634 9.23757 0)
(2.72809 10.1206 0)
(1.03959 10.6676 0)
(4.85718 0.02581 0)
(5.14911 0.0262142 0)
(4.86657 0.0270435 0)
(5.15278 0.0282819 0)
(4.87938 0.0299957 0)
(5.15454 0.0321473 0)
(4.89576 0.0348605 0)
(5.1553 0.0380633 0)
(4.91582 0.0419585 0)
(5.15616 0.0464189 0)
(4.93964 0.0517609 0)
(5.15845 0.0577695 0)
(4.96741 0.0649257 0)
(5.16365 0.0728785 0)
(4.9995 0.0823487 0)
(5.17347 0.0927792 0)
(5.0366 0.105237 0)
(5.18983 0.118862 0)
(5.07982 0.135215 0)
(5.21492 0.152998 0)
(5.13077 0.174471 0)
(5.25133 0.197718 0)
(5.19177 0.225974 0)
(5.30214 0.25648 0)
(5.26594 0.293798 0)
(5.37113 0.334059 0)
(5.35738 0.383597 0)
(5.46299 0.437154 0)
(5.47135 0.503348 0)
(5.58351 0.575333 0)
(5.6144 0.664502 0)
(5.7398 0.762546 0)
(5.79438 0.883821 0)
(5.94019 1.01962 0)
(6.02007 1.18633 0)
(6.19334 1.37842 0)
(6.29974 1.61006 0)
(6.50513 1.88894 0)
(6.63736 2.21387 0)
(6.8696 2.63095 0)
(7.17531 2.98388 0)
(6.95872 3.56669 0)
(7.08976 4.27329 0)
(7.15306 5.13476 0)
(7.09432 6.17398 0)
(6.97884 7.58939 0)
(6.4036 9.00295 0)
(5.34776 10.4633 0)
(3.69463 11.7723 0)
(1.48123 12.6208 0)
(4.85736 0.0221682 0)
(5.14966 0.0225158 0)
(4.86751 0.0232286 0)
(5.15411 0.0242936 0)
(4.88112 0.0257669 0)
(5.15673 0.0276176 0)
(4.89843 0.0299501 0)
(5.15849 0.032706 0)
(4.91959 0.0360552 0)
(5.16056 0.0398952 0)
(4.94476 0.0444893 0)
(5.16433 0.0496657 0)
(4.97423 0.0558212 0)
(5.17142 0.0626794 0)
(5.0085 0.0708272 0)
(5.18366 0.0798346 0)
(5.04842 0.0905556 0)
(5.20315 0.102343 0)
(5.09533 0.11642 0)
(5.23235 0.131845 0)
(5.15117 0.150334 0)
(5.2742 0.170568 0)
(5.21869 0.194907 0)
(5.33233 0.22158 0)
(5.30165 0.253743 0)
(5.41127 0.289156 0)
(5.40506 0.331891 0)
(5.51685 0.379364 0)
(5.53558 0.436556 0)
(5.65663 0.501 0)
(5.70189 0.578249 0)
(5.84043 0.667133 0)
(5.91525 0.772691 0)
(6.08092 0.897719 0)
(6.18995 1.04409 0)
(6.39389 1.22414 0)
(6.5434 1.43096 0)
(6.79723 1.69724 0)
(6.99475 1.99706 0)
(7.30576 2.40137 0)
(7.68863 2.72005 0)
(7.58813 3.37129 0)
(7.86867 4.10785 0)
(8.11582 5.03667 0)
(8.27784 6.20612 0)
(8.46967 7.8764 0)
(8.1272 9.72395 0)
(7.15835 11.8044 0)
(5.21864 13.8431 0)
(2.2062 15.2838 0)
(4.85752 0.0181884 0)
(5.15015 0.0184738 0)
(4.86831 0.0190592 0)
(5.15527 0.0199339 0)
(4.88263 0.0211438 0)
(5.15864 0.0226641 0)
(4.90075 0.0245802 0)
(5.16128 0.0268444 0)
(4.92286 0.0295967 0)
(5.16442 0.0327525 0)
(4.94921 0.0365299 0)
(5.16955 0.0407856 0)
(4.98015 0.0458508 0)
(5.17835 0.0514916 0)
(5.0163 0.0582032 0)
(5.19279 0.0656154 0)
(5.05864 0.0744594 0)
(5.21515 0.0841654 0)
(5.1087 0.0957995 0)
(5.24813 0.108509 0)
(5.16869 0.123828 0)
(5.29497 0.140515 0)
(5.24172 0.160744 0)
(5.35975 0.182767 0)
(5.33211 0.209604 0)
(5.44765 0.238893 0)
(5.44571 0.274725 0)
(5.56547 0.314087 0)
(5.59046 0.362326 0)
(5.72225 0.415963 0)
(5.77707 0.481593 0)
(5.93019 0.556 0)
(6.02016 0.646484 0)
(6.20593 0.752058 0)
(6.33969 0.878951 0)
(6.57215 1.03294 0)
(6.76297 1.21495 0)
(7.05943 1.44693 0)
(7.32682 1.71638 0)
(7.70736 2.0782 0)
(8.16587 2.34141 0)
(8.22305 3.03185 0)
(8.67954 3.75837 0)
(9.15981 4.7086 0)
(9.6281 5.96407 0)
(10.2929 7.81772 0)
(10.4376 10.1667 0)
(9.96529 13.1574 0)
(7.85641 16.4369 0)
(3.60506 19.1772 0)
(4.85764 0.0139294 0)
(5.15052 0.0141482 0)
(4.86894 0.0145967 0)
(5.15615 0.0152671 0)
(4.8838 0.0161942 0)
(5.1601 0.0173596 0)
(4.90253 0.0188278 0)
(5.1634 0.020564 0)
(4.92537 0.022673 0)
(5.16735 0.0250938 0)
(4.95263 0.0279882 0)
(5.17346 0.0312546 0)
(4.98471 0.0351356 0)
(5.18352 0.0394687 0)
(5.02233 0.0446107 0)
(5.19958 0.0503112 0)
(5.06659 0.0570855 0)
(5.22404 0.064562 0)
(5.11917 0.0734708 0)
(5.25979 0.0832824 0)
(5.18251 0.0950079 0)
(5.31035 0.107928 0)
(5.26007 0.123405 0)
(5.38017 0.140522 0)
(5.35661 0.161046 0)
(5.47503 0.183922 0)
(5.47869 0.21132 0)
(5.60263 0.242253 0)
(5.63533 0.279153 0)
(5.77341 0.321621 0)
(5.83901 0.37191 0)
(6.00189 0.431339 0)
(6.10722 0.500969 0)
(6.30855 0.586111 0)
(6.46498 0.684631 0)
(6.72289 0.810088 0)
(6.94876 0.953764 0)
(7.28822 1.14473 0)
(7.61287 1.3634 0)
(8.06936 1.66497 0)
(8.57533 1.85206 0)
(8.82188 2.53382 0)
(9.46712 3.19461 0)
(10.2144 4.0889 0)
(11.0638 5.32689 0)
(12.3907 7.17929 0)
(13.3781 9.91297 0)
(13.8152 13.9557 0)
(12.2469 19.8174 0)
(7.48659 27.3363 0)
(4.85774 0.00945831 0)
(5.1508 0.00960694 0)
(4.86941 0.00991164 0)
(5.15683 0.0103671 0)
(4.88468 0.010997 0)
(5.16122 0.0117889 0)
(4.90388 0.0127867 0)
(5.16504 0.0139665 0)
(4.9273 0.0154001 0)
(5.16963 0.0170453 0)
(4.95524 0.0190138 0)
(5.17654 0.021234 0)
(4.98819 0.0238751 0)
(5.18762 0.0268206 0)
(5.02692 0.030323 0)
(5.20501 0.0341983 0)
(5.0726 0.0388182 0)
(5.2312 0.043901 0)
(5.12703 0.0499865 0)
(5.26922 0.0566562 0)
(5.19282 0.064683 0)
(5.32278 0.0734646 0)
(5.27364 0.084088 0)
(5.39661 0.0957205 0)
(5.37461 0.109855 0)
(5.49688 0.125402 0)
(5.50283 0.144345 0)
(5.63189 0.165377 0)
(5.66817 0.191007 0)
(5.81307 0.21992 0)
(5.8845 0.255028 0)
(6.05656 0.295609 0)
(6.17171 0.344492 0)
(6.38577 0.402954 0)
(6.559 0.47254 0)
(6.83568 0.559486 0)
(7.09064 0.661672 0)
(7.46053 0.795949 0)
(7.83623 0.952799 0)
(8.34822 1.16946 0)
(8.88207 1.25922 0)
(9.33269 1.87995 0)
(10.1559 2.40702 0)
(11.1694 3.14072 0)
(12.428 4.19681 0)
(14.5319 5.71742 0)
(16.7531 8.37715 0)
(19.3589 12.8418 0)
(21.5639 21.8176 0)
(18.4759 39.296 0)
(4.85779 0.00479218 0)
(5.15096 0.00486751 0)
(4.86968 0.00502191 0)
(5.15722 0.00525279 0)
(4.88519 0.00557199 0)
(5.16186 0.00597339 0)
(4.90467 0.00647897 0)
(5.16597 0.0070771 0)
(4.9284 0.00780349 0)
(5.1709 0.00863778 0)
(4.95674 0.00963499 0)
(5.17824 0.0107612 0)
(4.9902 0.0120989 0)
(5.18986 0.0135938 0)
(5.02958 0.015367 0)
(5.20793 0.0173354 0)
(5.07612 0.0196731 0)
(5.23502 0.0222577 0)
(5.13171 0.0253345 0)
(5.27424 0.0287317 0)
(5.19903 0.0327856 0)
(5.32942 0.0372683 0)
(5.28194 0.0426266 0)
(5.40549 0.0485814 0)
(5.38579 0.0557003 0)
(5.50893 0.063687 0)
(5.51799 0.0732137 0)
(5.64849 0.0840639 0)
(5.68896 0.0969395 0)
(5.83635 0.111925 0)
(5.91343 0.129562 0)
(6.08984 0.150695 0)
(6.21277 0.1753 0)
(6.43444 0.205876 0)
(6.61888 0.241093 0)
(6.90885 0.286719 0)
(7.18125 0.338954 0)
(7.57448 0.409618 0)
(7.98011 0.490924 0)
(8.53401 0.60548 0)
(9.05929 0.581621 0)
(9.7025 1.08851 0)
(10.6625 1.41509 0)
(11.8902 1.87684 0)
(13.4968 2.55788 0)
(16.2733 3.33118 0)
(19.7318 5.15531 0)
(24.9134 8.4428 0)
(32.1847 13.7972 0)
(48.4504 25.1222 0)
(4.85781 1.52467e-10 0)
(5.15103 1.52113e-10 0)
(4.86979 1.51225e-10 0)
(5.15738 1.4897e-10 0)
(4.8854 1.46283e-10 0)
(5.16212 1.43282e-10 0)
(4.90498 1.4005e-10 0)
(5.16636 1.35631e-10 0)
(4.92885 1.32171e-10 0)
(5.17145 1.27695e-10 0)
(4.95735 1.23935e-10 0)
(5.17899 1.1807e-10 0)
(4.991 1.15174e-10 0)
(5.19087 1.0897e-10 0)
(5.03063 1.05466e-10 0)
(5.20928 9.93677e-11 0)
(5.07748 9.56864e-11 0)
(5.23682 8.86642e-11 0)
(5.13346 8.48692e-11 0)
(5.27661 7.61476e-11 0)
(5.20129 7.29565e-11 0)
(5.33255 6.30696e-11 0)
(5.28486 5.97896e-11 0)
(5.40959 4.8619e-11 0)
(5.38959 4.55217e-11 0)
(5.51427 3.28035e-11 0)
(5.52305 2.75642e-11 0)
(5.65544 1.49853e-11 0)
(5.69581 8.70499e-12 0)
(5.84545 -5.08262e-12 0)
(5.92297 -1.39314e-11 0)
(6.10195 -2.7275e-11 0)
(6.22646 -4.17e-11 0)
(6.45105 -5.24501e-11 0)
(6.63921 -7.55966e-11 0)
(6.93277 -8.21374e-11 0)
(7.21259 -1.19842e-10 0)
(7.6113 -1.15879e-10 0)
(8.03058 -1.77661e-10 0)
(8.5951 -1.60762e-10 0)
(9.07785 -0.139926 0)
(9.88456 0.197987 0)
(10.9098 0.27291 0)
(12.2436 0.375693 0)
(14.0289 0.525708 0)
(17.08 0.254467 0)
(21.1397 0.540946 0)
(27.612 1.00281 0)
(37.1755 0.433802 0)
(55.1693 0.362966 0)
(4.85779 -0.00479217 0)
(5.15096 -0.00486751 0)
(4.86968 -0.00502191 0)
(5.15722 -0.00525279 0)
(4.88519 -0.00557199 0)
(5.16186 -0.00597339 0)
(4.90467 -0.00647897 0)
(5.16597 -0.0070771 0)
(4.9284 -0.00780349 0)
(5.1709 -0.00863777 0)
(4.95674 -0.00963499 0)
(5.17824 -0.0107612 0)
(4.9902 -0.0120989 0)
(5.18986 -0.0135938 0)
(5.02958 -0.015367 0)
(5.20793 -0.0173354 0)
(5.07612 -0.0196731 0)
(5.23502 -0.0222577 0)
(5.13171 -0.0253345 0)
(5.27424 -0.0287317 0)
(5.19903 -0.0327856 0)
(5.32942 -0.0372683 0)
(5.28194 -0.0426266 0)
(5.40549 -0.0485814 0)
(5.38579 -0.0557003 0)
(5.50893 -0.063687 0)
(5.51799 -0.0732137 0)
(5.64849 -0.0840639 0)
(5.68896 -0.0969395 0)
(5.83635 -0.111925 0)
(5.91343 -0.129562 0)
(6.08984 -0.150695 0)
(6.21277 -0.1753 0)
(6.43444 -0.205876 0)
(6.61888 -0.241093 0)
(6.90885 -0.286719 0)
(7.18125 -0.338954 0)
(7.57448 -0.409618 0)
(7.98011 -0.490924 0)
(8.53401 -0.60548 0)
(8.937 -0.848307 0)
(9.84655 -0.711219 0)
(10.8463 -0.898586 0)
(12.142 -1.1736 0)
(13.8649 -1.59009 0)
(16.6385 -2.88412 0)
(20.3034 -4.2374 0)
(25.9784 -6.81731 0)
(33.9297 -12.9892 0)
(52.189 -24.3296 0)
(4.85774 -0.00945831 0)
(5.1508 -0.00960694 0)
(4.86941 -0.00991164 0)
(5.15683 -0.0103671 0)
(4.88468 -0.010997 0)
(5.16122 -0.0117889 0)
(4.90388 -0.0127867 0)
(5.16504 -0.0139665 0)
(4.9273 -0.0154001 0)
(5.16963 -0.0170453 0)
(4.95524 -0.0190138 0)
(5.17654 -0.021234 0)
(4.98819 -0.0238751 0)
(5.18762 -0.0268206 0)
(5.02692 -0.030323 0)
(5.20501 -0.0341983 0)
(5.0726 -0.0388182 0)
(5.2312 -0.043901 0)
(5.12703 -0.0499865 0)
(5.26922 -0.0566562 0)
(5.19282 -0.064683 0)
(5.32278 -0.0734646 0)
(5.27364 -0.084088 0)
(5.39661 -0.0957205 0)
(5.37461 -0.109855 0)
(5.49688 -0.125402 0)
(5.50283 -0.144345 0)
(5.63189 -0.165377 0)
(5.66817 -0.191007 0)