/*--------------------------------*- C++ -*----------------------------------*\
| =========                 |                                                 |
| \\      /  F ield         | foam-extend: Open Source CFD                    |
|  \\    /   O peration     | Version:     4.0                                |
|   \\  /    A nd           | Web:         http://www.foam-extend.org         |
|    \\/     M anipulation  |                                                 |
\*---------------------------------------------------------------------------*/
FoamFile
{
    version     2.0;
    format      ascii;
    class       regIOobject;
    location    "0.00200001/uniform";
    object      profilingInfo;
}
// * * * * * * * * * * * * * * * * * * * * * * * * * * * * * * * * * * * * * //

profilingInfo
(

    {
        id              22;
        parentId        21;
        description     "Foam::Time::writeObject - outputTime";
        calls           1;
        totalTime       0.45141;
        childTime       0;
        onStack         1;
    }

    {
        id              21;
        parentId        1;
        description     "Foam::Time::writeObject";
        calls           1;
        totalTime       0.451704;
        childTime       0.45141;
        onStack         1;
    }

    {
        id              1;
        description     "application::main";
        calls           1;
        totalTime       2.49204;
        childTime       1.30807;
        onStack         1;
    }

    {
        id              6;
        parentId        5;
        description     "functionObjectList::read";
        calls           1;
        totalTime       2e-06;
        childTime       0;
        onStack         0;
    }

    {
        id              5;
        parentId        1;
        description     "functionObjects_.start()";
        calls           1;
        totalTime       1.1e-05;
        childTime       2e-06;
        onStack         0;
    }

    {
        id              9;
        parentId        1;
        description     "fvMatrix::solve_U";
        calls           1;
        totalTime       0.064179;
        childTime       0.058437;
        onStack         0;
    }

    {
        id              7;
        parentId        1;
        description     "fvMatrix::solve_alpha1";
        calls           1;
        totalTime       0.010845;
        childTime       0.009613;
        onStack         0;
    }

    {
        id              19;
        parentId        1;
        description     "fvMatrix::solve_k";
        calls           1;
        totalTime       0.027747;
        childTime       0.025988;
        onStack         0;
    }

    {
        id              17;
        parentId        1;
        description     "fvMatrix::solve_omega";
        calls           1;
        totalTime       0.038006;
        childTime       0.036805;
        onStack         0;
    }

    {
        id              2;
        parentId        1;
        description     "fvMatrix::solve_pcorr";
        calls           1;
        totalTime       0.252399;
        childTime       0.252148;
        onStack         0;
    }

    {
        id              12;
        parentId        1;
        description     "fvMatrix::solve_pd";
        calls           2;
        totalTime       0.463177;
        childTime       0.462119;
        onStack         0;
    }

    {
        id              10;
        parentId        9;
        description     "lduMatrix::solver_Ux";
        calls           1;
        totalTime       0.031134;
        childTime       0;
        onStack         0;
    }

    {
        id              11;
        parentId        9;
        description     "lduMatrix::solver_Uy";
        calls           1;
        totalTime       0.027303;
        childTime       0;
        onStack         0;
    }

    {
        id              8;
        parentId        7;
        description     "lduMatrix::solver_alpha1";
        calls           1;
        totalTime       0.009613;
        childTime       0;
        onStack         0;
    }

    {
        id              4;
        parentId        3;
        description     "lduMatrix::solver_coarsestLevelCorr";
        calls           20;
        totalTime       0.012428;
        childTime       0;
        onStack         0;
    }

    {
        id              14;
        parentId        13;
        description     "lduMatrix::solver_coarsestLevelCorr";
        calls           14;
        totalTime       0.012873;
        childTime       0;
        onStack         0;
    }

    {
        id              16;
        parentId        15;
        description     "lduMatrix::solver_coarsestLevelCorr";
        calls           10;
        totalTime       0.008633;
        childTime       0;
        onStack         0;
    }

    {
        id              15;
        parentId        13;
        description     "lduMatrix::solver_dummy";
        calls           1;
        totalTime       0.195086;
        childTime       0.008633;
        onStack         0;
    }

    {
        id              20;
        parentId        19;
        description     "lduMatrix::solver_k";
        calls           1;
        totalTime       0.025988;
        childTime       0;
        onStack         0;
    }

    {
        id              18;
        parentId        17;
        description     "lduMatrix::solver_omega";
        calls           1;
        totalTime       0.036805;
        childTime       0;
        onStack         0;
    }

    {
        id              3;
        parentId        2;
        description     "lduMatrix::solver_pcorr";
        calls           1;
        totalTime       0.252148;
        childTime       0.012428;
        onStack         0;
    }

    {
        id              13;
        parentId        12;
        description     "lduMatrix::solver_pd";
        calls           2;
        totalTime       0.462119;
        childTime       0.207959;
        onStack         0;
    }
);


// ************************************************************************* //
