/*--------------------------------*- C++ -*----------------------------------*\
| =========                 |                                                 |
| \\      /  F ield         | foam-extend: Open Source CFD                    |
|  \\    /   O peration     | Version:     4.0                                |
|   \\  /    A nd           | Web:         http://www.foam-extend.org         |
|    \\/     M anipulation  |                                                 |
\*---------------------------------------------------------------------------*/
FoamFile
{
    version     2.0;
    format      ascii;
    class       volScalarField;
    location    "0.0019";
    object      k;
}
// * * * * * * * * * * * * * * * * * * * * * * * * * * * * * * * * * * * * * //

dimensions      [0 2 -2 0 0 0 0];

internalField   nonuniform List<scalar> 
28770
(
6.06939e-08
1.39939e-07
2.09436e-07
2.72846e-07
3.30501e-07
3.8376e-07
4.32689e-07
4.77481e-07
5.18192e-07
5.5485e-07
5.87462e-07
6.16025e-07
6.40537e-07
6.60998e-07
6.77411e-07
6.89788e-07
6.98149e-07
7.02526e-07
7.02964e-07
6.99526e-07
6.92287e-07
6.81339e-07
6.66814e-07
6.48856e-07
6.27643e-07
6.03381e-07
5.76307e-07
5.46693e-07
5.1484e-07
4.81084e-07
4.45791e-07
4.09353e-07
3.72188e-07
3.34731e-07
2.97431e-07
2.60744e-07
2.25124e-07
1.91015e-07
1.58844e-07
1.29007e-07
1.01861e-07
7.77121e-08
5.67974e-08
3.92745e-08
2.52057e-08
1.45449e-08
7.1227e-09
2.62398e-09
5.38904e-10
3.63846e-11
1.74433e-06
4.17707e-06
6.24106e-06
8.12472e-06
9.83971e-06
1.1423e-05
1.28781e-05
1.42101e-05
1.54208e-05
1.6511e-05
1.74808e-05
1.83301e-05
1.9059e-05
1.96673e-05
2.01552e-05
2.0523e-05
2.07714e-05
2.09012e-05
2.09138e-05
2.08111e-05
2.05953e-05
2.02692e-05
1.98367e-05
1.9302e-05
1.86705e-05
1.79483e-05
1.71424e-05
1.6261e-05
1.5313e-05
1.43084e-05
1.3258e-05
1.21737e-05
1.10677e-05
9.95311e-06
8.84322e-06
7.75159e-06
6.69175e-06
5.67694e-06
4.71981e-06
3.83219e-06
3.02471e-06
2.30644e-06
1.68447e-06
1.16348e-06
7.45345e-07
4.28685e-07
2.08477e-07
7.53847e-08
1.43501e-08
5.59863e-10
1.15134e-05
2.89077e-05
4.32345e-05
5.61853e-05
6.79918e-05
7.88819e-05
8.88955e-05
9.80632e-05
0.000106396
0.0001139
0.000120574
0.000126419
0.000131433
0.000135617
0.00013897
0.000141496
0.000143199
0.000144084
0.000144162
0.000143445
0.000141947
0.00013969
0.000136699
0.000133004
0.000128641
0.000123653
0.000118089
0.000112003
0.00010546
9.85257e-05
9.12772e-05
8.37945e-05
7.61635e-05
6.84736e-05
6.0817e-05
5.32872e-05
4.59777e-05
3.89796e-05
3.23805e-05
2.6262e-05
2.06975e-05
1.57499e-05
1.14681e-05
7.88482e-06
5.01317e-06
2.8444e-06
1.34579e-06
4.57641e-07
7.68198e-08
2.72911e-09
3.82375e-05
0.000100981
0.000152449
0.000198192
0.000239694
0.000277874
0.000312969
0.000345095
0.000374297
0.000400589
0.000423972
0.000444444
0.000462001
0.000476641
0.000488366
0.000497185
0.000503112
0.000506169
0.000506388
0.000503814
0.0004985
0.000490517
0.000479954
0.000466919
0.000451538
0.000433961
0.000414358
0.000392926
0.000369883
0.000345472
0.000319956
0.00029362
0.000266766
0.000239707
0.000212771
0.000186284
0.000160577
0.000135971
0.000112774
9.12753e-05
7.17335e-05
5.43716e-05
3.93653e-05
2.68334e-05
1.68293e-05
9.3345e-06
4.24996e-06
1.36018e-06
2.1362e-07
7.39942e-09
9.03258e-05
0.00024778
0.000379176
0.000494684
0.000598639
0.000693759
0.000780997
0.000860775
0.000933254
0.000998488
0.00105649
0.00110725
0.00115076
0.00118701
0.00121601
0.00123778
0.00125236
0.00125979
0.00126016
0.00125358
0.00124018
0.00122013
0.00119367
0.00116104
0.00112258
0.00107865
0.00102968
0.00097615
0.000918614
0.000857673
0.000793987
0.000728265
0.000661258
0.000593755
0.000526566
0.000460516
0.000396424
0.000335098
0.000277308
0.000223781
0.00017517
0.000132045
9.48601e-05
6.39373e-05
3.94412e-05
2.13517e-05
9.39751e-06
2.88897e-06
4.39884e-07
1.50844e-08
0.000175394
0.000493509
0.000765521
0.00100424
0.00121767
0.0014117
0.00158895
0.00175068
0.00189741
0.00202937
0.00214662
0.00224916
0.00233699
0.00241011
0.00246851
0.00251225
0.00254139
0.00255605
0.00255637
0.00254259
0.00251496
0.00247385
0.00241971
0.00235307
0.00227458
0.00218499
0.00208516
0.00197608
0.00185887
0.00173475
0.00160507
0.00147127
0.00133488
0.0011975
0.0010608
0.000926451
0.000796135
0.0006715
0.000554133
0.000445527
0.000347048
0.000259894
0.000185045
0.000123214
7.47715e-05
3.96282e-05
1.70081e-05
5.10188e-06
7.64719e-07
2.60927e-08
0.000299934
0.000858084
0.00134675
0.00177775
0.00216194
0.00250925
0.00282507
0.0031123
0.00337233
0.00360583
0.00381306
0.00399412
0.00414904
0.00427784
0.00438055
0.00445724
0.00450804
0.00453316
0.00453286
0.00450752
0.00445763
0.00438382
0.00428688
0.00416777
0.00402762
0.00386775
0.00368972
0.00349528
0.00328641
0.00306528
0.0028343
0.00259603
0.00235321
0.00210871
0.00186548
0.00162653
0.00139489
0.0011735
0.000965239
0.000772816
0.000598733
0.000445215
0.000314102
0.000206711
0.000123633
6.44311e-05
2.71704e-05
8.02769e-06
1.19251e-06
4.05717e-08
0.000468902
0.00135644
0.00214933
0.00285452
0.00348345
0.00404993
0.00456287
0.00502765
0.00544726
0.00582325
0.0061564
0.00644706
0.00669542
0.00690156
0.0070656
0.00718767
0.00726799
0.00730689
0.00730482
0.00726237
0.00718032
0.0070597
0.00690177
0.00670807
0.00648042
0.00622096
0.00593219
0.00561694
0.00527841
0.00492013
0.00454599
0.00416015
0.00376707
0.0033714
0.00297798
0.00259171
0.00221754
0.00186031
0.00152477
0.00121539
0.000936348
0.000691376
0.000483537
0.000314893
0.000186069
9.57359e-05
3.98822e-05
1.16689e-05
1.72344e-06
5.85163e-08
0.000685483
0.00199804
0.00319013
0.0042604
0.00521781
0.00607883
0.00685592
0.00755763
0.00818921
0.0087537
0.00925282
0.00968749
0.0100582
0.0103654
0.0106092
0.0107899
0.0109079
0.0109637
0.0109579
0.0108916
0.0107658
0.0105821
0.0103423
0.0100488
0.00970435
0.00931208
0.00887577
0.00839969
0.00788865
0.007348
0.0067836
0.00620177
0.00560925
0.00501313
0.00442076
0.00383964
0.00327731
0.00274123
0.00223867
0.00177651
0.00136118
0.000998402
0.000692775
0.000447116
0.000261607
0.000133305
5.50615e-05
1.60058e-05
2.35464e-06
7.98093e-08
0.000950953
0.0027866
0.00447597
0.0060067
0.00738218
0.00861945
0.00973391
0.0107373
0.0116378
0.0124405
0.0131485
0.0137638
0.0142874
0.0147203
0.0150628
0.0153156
0.0154793
0.0155546
0.0155425
0.0154443
0.0152618
0.0149969
0.0146525
0.0142317
0.0137385
0.0131774
0.0125537
0.0118735
0.0111438
0.0103721
0.00956678
0.008737
0.00789241
0.00704324
0.00620009
0.00537384
0.00457542
0.00381567
0.0031051
0.00245364
0.00187048
0.00136367
0.000939663
0.000601941
0.000349417
0.000176731
7.25511e-05
2.09972e-05
3.08091e-06
1.04309e-07
0.00126453
0.00371959
0.00600293
0.00808931
0.00997376
0.0116715
0.0131994
0.0145722
0.0158009
0.0168933
0.0178545
0.0186878
0.0193953
0.0199786
0.0204387
0.0207766
0.0209934
0.02109
0.021068
0.0209291
0.0206757
0.0203105
0.0198373
0.0192604
0.0185852
0.0178178
0.0169654
0.0160365
0.0150403
0.0139873
0.0128891
0.0117581
0.0106076
0.00945187
0.00830549
0.00718357
0.00610128
0.00507365
0.00411515
0.00323929
0.00245825
0.00178257
0.00122074
0.000777242
0.000448421
0.00022554
9.21661e-05
2.65874e-05
3.89322e-06
1.31711e-07
0.00162343
0.0047883
0.00775665
0.0104893
0.0129704
0.015211
0.0172277
0.0190373
0.0206536
0.0220871
0.0233453
0.0244333
0.0253548
0.0261124
0.0267079
0.027143
0.0274193
0.0275383
0.027502
0.0273129
0.0269738
0.0264888
0.0258624
0.0251005
0.0242099
0.0231988
0.0220767
0.0208546
0.0195447
0.018161
0.0167186
0.0152342
0.0137255
0.0122112
0.0107111
0.00924524
0.00783395
0.00649725
0.00525424
0.00412236
0.00311663
0.00224947
0.00153157
0.000970175
0.000557357
0.0002794
0.000113878
3.27826e-05
4.78996e-06
1.61577e-07
0.00202294
0.00597811
0.00971284
0.0131734
0.0163313
0.019191
0.0217671
0.0240773
0.0261375
0.0279609
0.0295576
0.0309351
0.0320986
0.0330524
0.0337995
0.0343423
0.0346832
0.0348246
0.0347691
0.0345198
0.0340806
0.0334565
0.0326533
0.0316785
0.0305408
0.0292504
0.0278197
0.0262624
0.0245944
0.0228335
0.0209992
0.0191129
0.0171974
0.015277
0.0133771
0.0115238
0.00974336
0.0080617
0.00650315
0.00508928
0.0038372
0.00275912
0.00186749
0.00117713
0.000674495
0.000338023
0.000137882
3.97398e-05
5.81262e-06
1.96361e-07
0.00245646
0.00726863
0.0118375
0.0160946
0.0199972
0.0235421
0.0267397
0.0296069
0.0321613
0.0344183
0.0363906
0.0380881
0.0395184
0.0406873
0.0415995
0.0422585
0.0426679
0.0428308
0.0427507
0.0424316
0.0418786
0.0410975
0.040096
0.038883
0.0374694
0.0358679
0.0340936
0.0321639
0.0300985
0.0279195
0.0256515
0.023321
0.0209569
0.0185895
0.0162509
0.0139738
0.0117914
0.0097361
0.00783852
0.00612477
0.00461266
0.00330814
0.00222573
0.00139594
0.000799012
0.000401561
0.000164467
4.75585e-05
6.95194e-06
2.33473e-07
0.00291587
0.00863465
0.0140886
0.019194
0.0238944
0.0281766
0.0320453
0.0355157
0.0386055
0.041332
0.0437104
0.045753
0.04747
0.0488691
0.0499568
0.0507383
0.0512182
0.0514008
0.0512908
0.0508932
0.0502141
0.0492608
0.0480425
0.04657
0.0448563
0.0429172
0.0407707
0.038438
0.0359432
0.0333131
0.0305776
0.0277695
0.0249239
0.022078
0.0192708
0.0165425
0.0139336
0.0114846
0.00923336
0.00721285
0.00544012
0.00388971
0.00260073
0.00162754
0.0009361
0.000475328
0.000196918
5.76245e-05
8.46952e-06
2.71057e-07
0.00339165
0.0100468
0.0164168
0.0224035
0.0279362
0.0329905
0.0375649
0.0416708
0.0453256
0.0485476
0.051354
0.0537596
0.0557771
0.0574167
0.0586866
0.059594
0.0601449
0.060345
0.0602001
0.0597165
0.0589015
0.057764
0.0563148
0.0545667
0.0525353
0.0502391
0.0476996
0.0449421
0.0419951
0.0388908
0.0356649
0.0323565
0.0290074
0.0256623
0.0223675
0.0191708
0.0161207
0.0132659
0.0106547
0.00833522
0.00705105
0.00475171
0.0031909
0.00202633
0.00120606
0.000644271
0.00028827
9.58817e-05
1.83169e-05
7.93419e-07
0.00387321
0.0114725
0.0187679
0.0256474
0.0320255
0.0378672
0.0431641
0.0479222
0.0521575
0.0558887
0.0591347
0.0619127
0.0642376
0.066122
0.0675767
0.0686104
0.069231
0.0694458
0.0692618
0.0686868
0.0677294
0.0664
0.0647113
0.0626782
0.0603189
0.0576547
0.054711
0.0515171
0.0481063
0.0445164
0.0407892
0.0369702
0.0331085
0.0292561
0.0254669
0.0217961
0.0182996
0.0150336
0.0120546
0.00940953
0.00786392
0.00531264
0.00351779
0.00223268
0.001344
0.000728052
0.000328175
0.000109843
2.08856e-05
8.27893e-07
0.00434918
0.0128772
0.021084
0.0288447
0.0360595
0.0426837
0.0486998
0.054109
0.0589246
0.0631652
0.0668509
0.0700006
0.0726318
0.0747595
0.0763965
0.077554
0.0782415
0.0784679
0.0782418
0.0775724
0.0764697
0.0749459
0.0730154
0.0706954
0.0680065
0.0649734
0.0616249
0.0579946
0.0541209
0.050047
0.0458208
0.0414947
0.0371249
0.0327707
0.0284935
0.0243555
0.0204188
0.0167452
0.0133964
0.0104195
0.00862773
0.00581064
0.00382702
0.0024387
0.00148256
0.000806866
0.000363253
0.000122828
2.37332e-05
9.57924e-07
0.00480779
0.0142254
0.0233061
0.0319132
0.0399341
0.047313
0.0540245
0.0600654
0.0654445
0.0701801
0.0742928
0.0778034
0.0807313
0.0830938
0.0849062
0.0861815
0.0869314
0.0871663
0.0868965
0.0861326
0.0848861
0.083171
0.0810034
0.0784027
0.0753922
0.0719995
0.0682572
0.064203
0.0598801
0.0553373
0.0506286
0.045813
0.0409537
0.0361172
0.0313721
0.0267875
0.0224316
0.0183705
0.0146713
0.0113887
0.00939589
0.0063335
0.00417789
0.00267687
0.00163568
0.000817969
0.000354898
0.000119839
2.17578e-05
6.65336e-07
0.00523716
0.0154822
0.0253763
0.034772
0.0435456
0.0516296
0.0589934
0.0656271
0.0715363
0.0767375
0.0812519
0.0851017
0.0883079
0.0908901
0.0928658
0.09425
0.0950562
0.0952967
0.0949831
0.0941277
0.0927435
0.0908461
0.0884533
0.0855867
0.0822721
0.07854
0.0744264
0.0699731
0.0652281
0.0602453
0.0550846
0.0498113
0.0444951
0.0392094
0.0340295
0.0290311
0.0242885
0.019873
0.0158566
0.0123048
0.0101325
0.00687682
0.00455331
0.00293058
0.00179266
0.000892947
0.000397169
0.000135858
2.50687e-05
8.26532e-07
0.00562572
0.0166142
0.0272391
0.0373442
0.0467955
0.0555165
0.0634683
0.0706374
0.0770272
0.0826504
0.0875287
0.0916853
0.095143
0.0979233
0.100045
0.101526
0.102381
0.102625
0.102269
0.101329
0.0998172
0.0977523
0.0951535
0.0920442
0.0884525
0.0844116
0.0799608
0.0751457
0.0700183
0.0646376
0.0590688
0.0533829
0.0476558
0.0419668
0.0363976
0.0310298
0.0259432
0.0212144
0.0169195
0.013131
0.0107873
0.0073845
0.00490229
0.00316188
0.00193662
0.000965432
0.000432282
0.000147287
2.78603e-05
9.41355e-07
0.00596255
0.0175908
0.0288445
0.0395597
0.0495948
0.0588651
0.0673237
0.0749554
0.0817598
0.0877482
0.0929408
0.0973622
0.101037
0.103987
0.106234
0.107797
0.108693
0.108936
0.108542
0.107525
0.105902
0.10369
0.100911
0.0975901
0.0937572
0.089448
0.0847047
0.079576
0.0741179
0.0683936
0.0624728
0.0564317
0.0503514
0.0443168
0.0384146
0.0327316
0.0273525
0.0223582
0.0178282
0.0138377
0.0113351
0.00781672
0.00519425
0.00335444
0.00205902
0.00103032
0.000465593
0.000161629
3.14921e-05
1.02941e-06
0.00623792
0.0183854
0.0301487
0.0413583
0.0518662
0.0615819
0.0704528
0.0784577
0.0855973
0.0918821
0.0973299
0.101966
0.105815
0.108902
0.111249
0.112876
0.113803
0.114044
0.113617
0.112536
0.110819
0.108486
0.105559
0.102064
0.0980339
0.0935056
0.0885237
0.0831397
0.0774128
0.0714096
0.0652037
0.0588753
0.05251
0.046197
0.0400273
0.0340918
0.0284788
0.0232729
0.018556
0.0144054
0.0117689
0.00816779
0.00543084
0.00351123
0.00216166
0.00109108
0.00049711
0.000175855
3.1659e-05
1.92158e-06
0.00644375
0.0189768
0.0311177
0.0426923
0.053549
0.063593
0.0727677
0.0810477
0.088432
0.0949332
0.100569
0.105361
0.109338
0.112523
0.114942
0.116615
0.117562
0.117799
0.117345
0.116215
0.114427
0.112002
0.108963
0.105339
0.101161
0.0964696
0.0913106
0.0857377
0.0798122
0.0736032
0.0671875
0.0606483
0.0540742
0.0475578
0.0411932
0.0350742
0.0292921
0.0239335
0.0190827
0.0148191
0.0120806
0.00843969
0.00561754
0.00363528
0.00224444
0.00114021
0.000527678
0.000191715
3.65896e-05
2.40068e-06
0.00657547
0.0193547
0.0317369
0.0435436
0.0546211
0.064872
0.0742375
0.0826902
0.0902265
0.0968607
0.102612
0.107502
0.111556
0.114801
0.117262
0.118961
0.119917
0.12015
0.119675
0.118512
0.116677
0.114192
0.111081
0.107373
0.103101
0.0983057
0.0930343
0.0873419
0.0812912
0.074953
0.0684059
0.061735
0.055031
0.0483884
0.0419035
0.0356717
0.0297862
0.0243351
0.0194039
0.0150743
0.0122599
0.00862581
0.00574953
0.00372277
0.00230149
0.00117319
0.000551906
0.000209372
5.89566e-05
5.74757e-06
0.00662637
0.0195007
0.0319754
0.0438692
0.0550278
0.0653532
0.0747861
0.0832984
0.0908861
0.0975631
0.103351
0.108271
0.112349
0.115611
0.118082
0.119786
0.120741
0.120967
0.120482
0.119302
0.117446
0.114936
0.111797
0.108056
0.103748
0.0989142
0.0936015
0.0878657
0.0817703
0.0753866
0.0687937
0.0620775
0.0553294
0.0486446
0.04212
0.0358517
0.0299333
0.0244536
0.0194983
0.0151496
0.0122864
0.00870742
0.00580921
0.00376169
0.00232679
0.00118923
0.00056289
0.000219496
6.71051e-05
1.06567e-05
0.00659654
0.0194142
0.0318311
0.0436652
0.0547633
0.0650286
0.0744032
0.08286
0.090396
0.0970263
0.102772
0.107654
0.111699
0.114934
0.117384
0.11907
0.120014
0.120233
0.119745
0.118567
0.116718
0.11422
0.111096
0.107374
0.10309
0.0982832
0.0930014
0.0872996
0.0812409
0.0748963
0.0683443
0.0616701
0.0549647
0.0483223
0.0418393
0.0356111
0.0297307
0.0242864
0.0193634
0.0150429
0.0121574
0.00866932
0.00578246
0.00374326
0.00231374
0.00117743
0.000554248
0.000212459
6.02384e-05
6.5377e-06
0.00648606
0.0190955
0.0313037
0.0429306
0.0538263
0.0638971
0.073088
0.0813748
0.0887573
0.0952503
0.100874
0.105652
0.10961
0.112775
0.11517
0.116819
0.11774
0.117951
0.117469
0.116312
0.114497
0.112045
0.10898
0.105331
0.101129
0.0964152
0.0912359
0.085645
0.0797042
0.073483
0.0670581
0.0605131
0.0539366
0.0474212
0.041061
0.0349496
0.0291781
0.0238332
0.0189986
0.0147545
0.0118837
0.00851591
0.00567412
0.00367019
0.00226447
0.0011427
0.00053035
0.000195144
4.88886e-05
2.51616e-06
0.0063011
0.0185613
0.0304217
0.0417051
0.0522675
0.0620201
0.0709123
0.0789246
0.0860602
0.0923328
0.0977626
0.102375
0.106197
0.109252
0.111565
0.113157
0.114046
0.114248
0.113782
0.112661
0.110905
0.108533
0.105568
0.102037
0.0979719
0.0934115
0.0884005
0.082991
0.0772424
0.0712218
0.0650033
0.0586672
0.0522991
0.0459883
0.0398257
0.0339019
0.0283052
0.0231197
0.0184272
0.0143071
0.0114861
0.00826952
0.00550423
0.00355598
0.00218755
0.00109295
0.000500491
0.00017836
4.21325e-05
1.95178e-06
0.00604271
0.0178142
0.0291901
0.0399977
0.0501003
0.0594155
0.0678989
0.0755381
0.0823364
0.0883088
0.0934775
0.0978681
0.101506
0.104416
0.106619
0.108136
0.108983
0.109177
0.108733
0.107666
0.105993
0.103732
0.100905
0.097538
0.0936616
0.0893122
0.0845324
0.0793718
0.0738869
0.0681412
0.062205
0.0561547
0.0500716
0.0440405
0.0381481
0.0324809
0.0271233
0.022156
0.0176583
0.0137085
0.0109711
0.00794314
0.00528445
0.00340939
0.00209005
0.0010334
0.000468303
0.000163601
3.22235e-05
1.08759e-06
0.00572027
0.0168777
0.0276463
0.037859
0.0473885
0.0561604
0.0641393
0.0713159
0.0776979
0.0833015
0.0881503
0.0922695
0.0956836
0.0984155
0.100486
0.101912
0.10271
0.102895
0.102481
0.101481
0.0999108
0.0977881
0.0951331
0.0919699
0.0883273
0.0842394
0.0797461
0.0748937
0.069735
0.0643296
0.058743
0.0530466
0.0473164
0.041632
0.0360746
0.0307257
0.0256651
0.0209695
0.0167143
0.0129761
0.0103531
0.00754052
0.00501467
0.00323091
0.0019748
0.000967709
0.000434683
0.000148841
2.75778e-05
9.07872e-07
0.00534284
0.015777
0.0258314
0.0353465
0.0442058
0.0523448
0.0597372
0.0663781
0.0722778
0.077456
0.0819364
0.0857435
0.0889005
0.0914284
0.0933457
0.0946686
0.0954115
0.0955871
0.0952079
0.0942866
0.0928371
0.0908754
0.0884202
0.0854938
0.0821228
0.0783384
0.0741776
0.069683
0.0649033
0.059893
0.0547125
0.0494275
0.044108
0.0388273
0.0336605
0.0286831
0.0239697
0.0195918
0.01562
0.0121265
0.00963252
0.00705879
0.00468888
0.00301597
0.00183987
0.000896874
0.000399982
0.000137586
2.49444e-05
7.86045e-07
0.00492116
0.014542
0.0237946
0.0325287
0.0406399
0.0480758
0.0548164
0.0608639
0.0662318
0.0709415
0.0750168
0.0784811
0.0813559
0.08366
0.0854099
0.0866198
0.087302
0.0874677
0.0871279
0.0862938
0.0849777
0.0831941
0.0809601
0.0782957
0.0752251
0.0717767
0.0679841
0.0638857
0.0595257
0.0549534
0.0502235
0.0453953
0.0405322
0.0357006
0.030969
0.0264064
0.0220813
0.01806
0.0144071
0.0111879
0.00886129
0.00651689
0.00431454
0.00276652
0.00168707
0.000821775
0.00035803
0.000121916
2.22879e-05
6.66165e-07
0.00446679
0.0132059
0.0215907
0.0294819
0.0367885
0.0434699
0.0495146
0.0549292
0.0597317
0.0639445
0.0675907
0.0706922
0.0732682
0.0753355
0.0769081
0.077998
0.0786159
0.0787712
0.0784732
0.0777316
0.0765574
0.0749634
0.0729646
0.0705791
0.0678284
0.064738
0.0613377
0.0576619
0.0537498
0.0496453
0.045397
0.0410575
0.0366833
0.0323336
0.0280698
0.0239538
0.0200479
0.0164128
0.0131087
0.0101965
0.00807269
0.00596214
0.00393568
0.00250994
0.00152712
0.000829699
0.000371534
0.000127034
2.50677e-05
1.03244e-06
0.00399168
0.0118037
0.019278
0.0262873
0.0327558
0.0386529
0.0439767
0.0487387
0.0529594
0.0566617
0.0598676
0.0625969
0.0648664
0.0666904
0.0680808
0.0690472
0.0695986
0.0697426
0.0694871
0.0688404
0.0678118
0.0664126
0.0646559
0.0625577
0.0601367
0.0574155
0.05442
0.0511806
0.0477313
0.0441106
0.0403608
0.036528
0.0326614
0.0288129
0.0250362
0.0213864
0.017919
0.0146896
0.0117556
0.00917988
0.00729981
0.00544618
0.00359714
0.00228368
0.00138016
0.000750118
0.00033878
0.000113678
2.16741e-05
8.61917e-07
0.00350779
0.0103714
0.016916
0.0230279
0.0286469
0.0337533
0.0383519
0.0424599
0.0460992
0.0492921
0.0520589
0.0544169
0.0563806
0.0579616
0.0591694
0.0600118
0.0604958
0.0606277
0.0604138
0.0598611
0.0589775
0.0577726
0.0562578
0.0544467
0.0523558
0.0500043
0.0474146
0.0446128
0.0416282
0.0384938
0.0352457
0.0319233
0.0285688
0.0252268
0.0219435
0.0187664
0.0157442
0.0129262
0.0103659
0.00812768
0.0064269
0.00492496
0.00328588
0.00208203
0.00124713
0.000671584
0.000301794
0.000100558
1.8994e-05
7.63093e-07
0.00302676
0.00894437
0.0145639
0.0197866
0.0245668
0.0288961
0.0327859
0.0362564
0.0393303
0.0420285
0.044369
0.0463665
0.0480327
0.0493769
0.0504062
0.0511269
0.0515442
0.051663
0.0514884
0.0510261
0.0502827
0.0492663
0.0479864
0.0464549
0.0446853
0.0426942
0.0405004
0.038126
0.0355955
0.0329367
0.0301799
0.0273582
0.0245069
0.0216633
0.0188664
0.0161563
0.0135739
0.0111607
0.00896124
0.00702782
0.00531598
0.0037898
0.00253419
0.00158581
0.000915765
0.000466198
0.000192837
5.65811e-05
8.27892e-06
2.64265e-07
0.0025596
0.00755624
0.0122778
0.0166414
0.0206154
0.0242015
0.0274163
0.0302822
0.0328208
0.0350511
0.0369883
0.0386443
0.0400283
0.0411471
0.0420062
0.04261
0.0429625
0.0430673
0.0429286
0.0425507
0.0419393
0.0411008
0.0400434
0.0387766
0.037312
0.035663
0.0338455
0.0318775
0.0297793
0.0275737
0.0252857
0.0229423
0.0205725
0.0182068
0.0158773
0.0136166
0.011458
0.00943363
0.00757535
0.00592615
0.00447939
0.00321034
0.0021645
0.00136204
0.00078259
0.000393717
0.000161422
4.66421e-05
6.81236e-06
2.29274e-07
0.00211627
0.00623777
0.010109
0.0136633
0.0168828
0.0197771
0.0223667
0.0246742
0.0267194
0.0285184
0.0300837
0.0314242
0.0325468
0.0334564
0.0341567
0.0346508
0.0349418
0.0350321
0.0349249
0.0346238
0.0341332
0.0334584
0.032606
0.0315837
0.0304009
0.0290685
0.0275994
0.026008
0.0243108
0.022526
0.0206737
0.0187754
0.0168544
0.0149351
0.0130429
0.0112043
0.00944585
0.00779293
0.00626661
0.00489712
0.00369472
0.00265818
0.00180334
0.00113843
0.000653584
0.000327742
0.000133714
3.84923e-05
5.61749e-06
1.89384e-07
0.00170544
0.00501571
0.00810214
0.0109143
0.0134467
0.0157151
0.0177418
0.0195478
0.0211503
0.0225624
0.0237934
0.0248498
0.0257362
0.0264561
0.0270118
0.0274055
0.0276392
0.0277148
0.0276345
0.0274013
0.0270184
0.0264902
0.0258217
0.0250192
0.0240901
0.0230431
0.0218881
0.0206366
0.0193015
0.017897
0.0164389
0.0149439
0.01343
0.0119163
0.0104223
0.0089684
0.00757557
0.00626421
0.00504988
0.00395204
0.00298431
0.00215328
0.00146702
0.000929225
0.000534292
0.000267954
0.000109213
3.14066e-05
4.58174e-06
1.54466e-07
0.0013343
0.00391218
0.00629403
0.00844522
0.0103705
0.0120896
0.0136243
0.0149932
0.0162099
0.0172842
0.0182227
0.0190299
0.0197085
0.0202609
0.0206883
0.0209923
0.0211742
0.0212352
0.0211771
0.021002
0.0207125
0.0203119
0.0198041
0.0191938
0.0184868
0.0176897
0.0168101
0.0158568
0.0148396
0.0137693
0.0126577
0.0115176
0.0103626
0.00920699
0.00806545
0.00695304
0.00588524
0.00487785
0.00394335
0.00309468
0.00234316
0.00169652
0.0011607
0.00073818
0.000425801
0.000214025
8.73472e-05
2.51352e-05
3.6678e-06
1.23652e-07
0.00100815
0.00294355
0.0047117
0.00629283
0.00769926
0.00895211
0.0100709
0.0110704
0.0119609
0.012749
0.013439
0.0140336
0.0145346
0.014943
0.0152599
0.015486
0.0156223
0.0156695
0.0156291
0.0155024
0.0152915
0.0149986
0.0146269
0.0141797
0.0136614
0.0130768
0.0124315
0.011732
0.0109854
0.0101998
0.00938366
0.00854642
0.00769792
0.00684855
0.006009
0.00519011
0.00440274
0.00365823
0.00296626
0.00233585
0.00177524
0.00129092
0.000887563
0.000567367
0.000328835
0.000165958
6.79381e-05
1.95882e-05
2.86074e-06
9.64492e-08
0.000730363
0.00212024
0.00337225
0.0044796
0.00545919
0.00633087
0.00711043
0.00780866
0.00843239
0.00898579
0.00947132
0.00989049
0.0102442
0.0105331
0.0107577
0.0109184
0.0110159
0.0110507
0.0110237
0.010936
0.0107889
0.0105842
0.010324
0.0100106
0.00964722
0.0092372
0.00878455
0.00829379
0.00776997
0.00721867
0.00664593
0.00605827
0.00546256
0.00486601
0.0042761
0.00370033
0.00314608
0.00262098
0.00213195
0.00168523
0.00128646
0.000940339
0.000650375
0.000418437
0.000244102
0.000123938
5.09866e-05
1.47494e-05
2.15728e-06
7.27434e-08
0.000502304
0.00144645
0.00228216
0.00301285
0.00365662
0.00422993
0.0047441
0.0052061
0.00561999
0.00598805
0.00631157
0.00659128
0.00682763
0.00702093
0.00717144
0.00727944
0.00734529
0.00736938
0.00735229
0.00729475
0.00719766
0.00706218
0.00688972
0.00668195
0.00644086
0.00616878
0.00586836
0.00554261
0.00519491
0.00482895
0.00444875
0.00405861
0.00366308
0.0032669
0.00287499
0.00249231
0.00212367
0.00177393
0.00144763
0.00114887
0.000881288
0.000647978
0.000451305
0.000292683
0.000172211
8.81801e-05
3.65443e-05
1.06267e-05
1.55804e-06
5.2554e-08
0.000323176
0.000919836
0.00143678
0.00188388
0.00227723
0.00262857
0.00294492
0.00323017
0.00348637
0.00371464
0.00391556
0.00408946
0.00423654
0.00435695
0.00445082
0.00451832
0.00455966
0.00457508
0.00456495
0.00452971
0.00446995
0.00438638
0.00427989
0.00415151
0.0040025
0.0038343
0.00364856
0.00344715
0.00323216
0.00300589
0.00277081
0.00252958
0.00228502
0.00204004
0.00179765
0.00156089
0.00133272
0.00111605
0.000913644
0.000727976
0.00056124
0.00041528
0.000291519
0.000190865
0.00011354
5.88206e-05
2.46447e-05
7.22535e-06
1.06356e-06
3.58969e-08
0.000190189
0.000532045
0.000820859
0.00106868
0.00128722
0.00148342
0.00166086
0.00182136
0.0019658
0.00209465
0.00220817
0.00230648
0.00238968
0.00245784
0.00251102
0.00254932
0.00257285
0.00258176
0.00257626
0.00255659
0.00252309
0.00247618
0.00241634
0.00234417
0.00226038
0.00216579
0.00206133
0.00194806
0.00182715
0.00169989
0.0015677
0.00143205
0.00129453
0.00115678
0.00102047
0.000887307
0.000758947
0.000636998
0.000522977
0.000418257
0.000324034
0.000241299
0.00017081
0.000113045
6.81575e-05
3.58683e-05
1.52742e-05
4.53837e-06
6.72635e-07
2.27285e-08
9.86361e-05
0.000268813
0.000408819
0.000528756
0.000635222
0.000731384
0.000818688
0.000897817
0.000969113
0.00103275
0.00108884
0.00113743
0.00117856
0.00121226
0.00123858
0.00125755
0.00126923
0.0012737
0.00127106
0.00126143
0.00124499
0.00122192
0.0011925
0.00115699
0.00111577
0.00106922
0.00101782
0.000962084
0.000902593
0.000839984
0.000774947
0.000708218
0.000640574
0.00057282
0.000505775
0.000440273
0.000377128
0.000317123
0.000260995
0.000209409
0.000162939
0.000122056
8.71068e-05
5.83013e-05
3.5695e-05
1.91656e-05
8.35772e-06
2.54012e-06
3.81423e-07
1.29189e-08
4.20959e-05
0.000110339
0.000165346
0.000212831
0.000255361
0.000293963
0.000329083
0.000360942
0.000389654
0.000415286
0.000437875
0.000457446
0.000474013
0.000487591
0.000498196
0.000505843
0.000510561
0.000512376
0.000511329
0.000507474
0.000500877
0.000491621
0.000479805
0.000465549
0.000448994
0.000430303
0.000409662
0.000387282
0.000363395
0.000338259
0.00031215
0.000285364
0.000258213
0.000231021
0.000204115
0.000177828
0.000152488
0.000128406
0.000105876
8.5162e-05
6.64924e-05
5.00507e-05
3.597e-05
2.43248e-05
1.51252e-05
8.3108e-06
3.7439e-06
1.18236e-06
1.82552e-07
6.22198e-09
1.2803e-05
3.18519e-05
4.71996e-05
6.06388e-05
7.27533e-05
8.37686e-05
9.37931e-05
0.000102885
0.000111078
0.000118391
0.000124834
0.000130416
0.000135142
0.000139014
0.000142038
0.00014422
0.000145565
0.000146083
0.000145786
0.000144687
0.000142808
0.00014017
0.000136804
0.000132742
0.000128026
0.000122701
0.000116821
0.000110447
0.000103644
9.64855e-05
8.9051e-05
8.14246e-05
7.36948e-05
6.5954e-05
5.82956e-05
5.0814e-05
4.3602e-05
3.67484e-05
3.03365e-05
2.4441e-05
1.91264e-05
1.44443e-05
1.04316e-05
7.10833e-06
4.4753e-06
2.51195e-06
1.1742e-06
3.93241e-07
6.46404e-08
2.2465e-09
1.96384e-06
4.64656e-06
6.86199e-06
8.81767e-06
1.05816e-05
1.21847e-05
1.3643e-05
1.49653e-05
1.61565e-05
1.72196e-05
1.81562e-05
1.89675e-05
1.96541e-05
2.02167e-05
2.0656e-05
2.09726e-05
2.11679e-05
2.12428e-05
2.1199e-05
2.10389e-05
2.07651e-05
2.03813e-05
1.98914e-05
1.93006e-05
1.86146e-05
1.78402e-05
1.69852e-05
1.60584e-05
1.50694e-05
1.40288e-05
1.29482e-05
1.18398e-05
1.07166e-05
9.59177e-06
8.4791e-06
7.39222e-06
6.3446e-06
5.34916e-06
4.41794e-06
3.56179e-06
2.79003e-06
2.11014e-06
1.52739e-06
1.04461e-06
6.61821e-07
3.75957e-07
1.80327e-07
6.40881e-08
1.18832e-08
4.47584e-10
6.87886e-08
1.56931e-07
2.31717e-07
2.97691e-07
3.57167e-07
4.1121e-07
4.60364e-07
5.04929e-07
5.45074e-07
5.80897e-07
6.12457e-07
6.3979e-07
6.6292e-07
6.81868e-07
6.96659e-07
7.07313e-07
7.13875e-07
7.1638e-07
7.14882e-07
7.09461e-07
7.00211e-07
6.87247e-07
6.7071e-07
6.50768e-07
6.27619e-07
6.01491e-07
5.72647e-07
5.4138e-07
5.08019e-07
4.72922e-07
4.36478e-07
3.99099e-07
3.6122e-07
3.23294e-07
2.85779e-07
2.49137e-07
2.13822e-07
1.80269e-07
1.48885e-07
1.20034e-07
9.40313e-08
7.11272e-08
5.14996e-08
3.52415e-08
2.23509e-08
1.27242e-08
6.13824e-09
2.2207e-09
4.43133e-10
2.83997e-11
3.82356e-08
9.16953e-10
4.86899e-11
1.88662e-12
5.94576e-15
1.64195e-15
1e-15
1e-15
1e-15
1e-15
1e-15
1e-15
1e-15
1e-15
1.81668e-15
3.72948e-14
7.56781e-13
1.54053e-11
3.16631e-10
7.26758e-09
8.13583e-07
4.45318e-08
2.29968e-09
1.17829e-10
5.48023e-12
1.51068e-13
4.90314e-15
1e-15
1e-15
1e-15
1e-15
1e-15
1e-15
1.01473e-14
1.93253e-13
3.85482e-12
7.784e-11
1.5779e-09
3.19506e-08
6.33725e-07
2.38529e-07
9.50128e-09
5.07385e-10
2.69633e-11
1.17684e-12
5.47446e-14
1.61559e-15
1e-15
1e-15
1e-15
1e-15
1e-15
1e-15
2.30335e-15
4.18126e-14
8.38015e-13
1.68896e-11
3.422e-10
7.00967e-09
1.56111e-07
1.76324e-11
2.74965e-10
1.37475e-09
3.77999e-09
7.76569e-09
1.34746e-08
2.09242e-08
3.00225e-08
4.05851e-08
5.23526e-08
6.50102e-08
7.82092e-08
9.15889e-08
1.04798e-07
1.1751e-07
1.29445e-07
1.40374e-07
1.50131e-07
1.58616e-07
1.65793e-07
1.71688e-07
1.76381e-07
1.79998e-07
1.82704e-07
1.84688e-07
1.86158e-07
1.87331e-07
1.88421e-07
1.89639e-07
1.91185e-07
1.93249e-07
1.96008e-07
1.99627e-07
2.04259e-07
2.10051e-07
2.17136e-07
2.2564e-07
2.3568e-07
2.4736e-07
2.60772e-07
2.75991e-07
2.93072e-07
3.12042e-07
3.32899e-07
3.55598e-07
3.80051e-07
4.06119e-07
4.33614e-07
4.62299e-07
4.91899e-07
5.2212e-07
5.52654e-07
5.83203e-07
6.13482e-07
6.43232e-07
6.72224e-07
7.00266e-07
7.27188e-07
7.52869e-07
7.77207e-07
8.00125e-07
8.21577e-07
8.41532e-07
8.59978e-07
8.76916e-07
8.92363e-07
9.06349e-07
9.18913e-07
9.30102e-07
9.39975e-07
9.48591e-07
9.56018e-07
9.62322e-07
9.67572e-07
9.71836e-07
9.7518e-07
9.77668e-07
9.7936e-07
9.80312e-07
9.8058e-07
9.80215e-07
9.79261e-07
9.77757e-07
9.75756e-07
9.73295e-07
9.70417e-07
9.67161e-07
9.63565e-07
9.59666e-07
9.555e-07
9.51101e-07
9.46503e-07
9.4174e-07
9.36851e-07
9.31886e-07
9.26919e-07
9.22073e-07
9.17559e-07
9.13731e-07
9.11196e-07
2.77943e-10
7.3747e-09
3.96697e-08
1.11026e-07
2.2953e-07
3.9938e-07
6.21101e-07
8.91932e-07
1.20636e-06
1.55665e-06
1.93342e-06
2.32627e-06
2.72447e-06
3.11753e-06
3.49578e-06
3.85084e-06