/*--------------------------------*- C++ -*----------------------------------*\
| =========                 |                                                 |
| \\      /  F ield         | foam-extend: Open Source CFD                    |
|  \\    /   O peration     | Version:     4.0                                |
|   \\  /    A nd           | Web:         http://www.foam-extend.org         |
|    \\/     M anipulation  |                                                 |
\*---------------------------------------------------------------------------*/
FoamFile
{
    version     2.0;
    format      ascii;
    class       volScalarField;
    location    "0.0019";
    object      nut;
}
// * * * * * * * * * * * * * * * * * * * * * * * * * * * * * * * * * * * * * //

dimensions      [0 2 -1 0 0 0 0];

internalField   nonuniform List<scalar> 
28770
(
3.23537e-15
7.45962e-15
1.11643e-14
1.45444e-14
1.76178e-14
2.04568e-14
2.30651e-14
2.54528e-14
2.7623e-14
2.95771e-14
3.13155e-14
3.28381e-14
3.41447e-14
3.52354e-14
3.61103e-14
3.67701e-14
3.72158e-14
3.74491e-14
3.74725e-14
3.72892e-14
3.69033e-14
3.63197e-14
3.55455e-14
3.45882e-14
3.34574e-14
3.21641e-14
3.07209e-14
2.91422e-14
2.74443e-14
2.56449e-14
2.37635e-14
2.18211e-14
1.984e-14
1.78433e-14
1.5855e-14
1.38993e-14
1.20005e-14
1.01823e-14
8.46738e-15
6.87688e-15
5.42986e-15
4.14255e-15
3.02766e-15
2.09358e-15
1.34363e-15
7.75335e-16
3.79685e-16
1.39875e-16
2.8727e-17
1.93953e-18
6.46046e-13
1.31118e-12
1.93217e-12
2.5117e-12
3.04129e-12
3.53052e-12
3.98021e-12
4.39189e-12
4.76608e-12
5.103e-12
5.40273e-12
5.66524e-12
5.89051e-12
6.07852e-12
6.22931e-12
6.34299e-12
6.41975e-12
6.45987e-12
6.46378e-12
6.43203e-12
6.36534e-12
6.26455e-12
6.13086e-12
5.96561e-12
5.77043e-12
5.54721e-12
5.29815e-12
5.02572e-12
4.73272e-12
4.42223e-12
4.0976e-12
3.76246e-12
3.42064e-12
3.07615e-12
2.73312e-12
2.39574e-12
2.06818e-12
1.75453e-12
1.45871e-12
1.18438e-12
9.34816e-13
7.1282e-13
5.20585e-13
3.59555e-13
2.30295e-13
1.32352e-13
6.40856e-14
2.24216e-14
3.23836e-15
3.11256e-17
1.69481e-11
2.84216e-11
3.98574e-11
5.11482e-11
6.17233e-11
7.15579e-11
8.06245e-11
8.89325e-11
9.6487e-11
1.0329e-10
1.09342e-10
1.14642e-10
1.19189e-10
1.22983e-10
1.26024e-10
1.28314e-10
1.29858e-10
1.30661e-10
1.30732e-10
1.30081e-10
1.28723e-10
1.26676e-10
1.23963e-10
1.20613e-10
1.16656e-10
1.12133e-10
1.07087e-10
1.01568e-10
9.5634e-11
8.93461e-11
8.27727e-11
7.59871e-11
6.90669e-11
6.20933e-11
5.51498e-11
4.83214e-11
4.16926e-11
3.53462e-11
2.93614e-11
2.38121e-11
1.87649e-11
1.42761e-11
1.03896e-11
7.13348e-12
4.5167e-12
2.526e-12
1.12909e-12
3.04413e-13
2.36387e-14
1.51725e-16
1.67296e-10
2.34308e-10
3.07194e-10
3.84036e-10
4.58983e-10
5.30026e-10
5.96134e-10
6.56969e-10
7.12395e-10
7.62353e-10
8.0681e-10
8.45743e-10
8.79139e-10
9.06989e-10
9.29296e-10
9.46073e-10
9.57348e-10
9.63163e-10
9.63579e-10
9.58679e-10
9.48566e-10
9.33373e-10
9.13273e-10
8.88468e-10
8.59199e-10
8.2575e-10
7.88448e-10
7.47664e-10
7.03815e-10
6.57361e-10
6.08805e-10
5.58688e-10
5.07582e-10
4.56088e-10
4.04822e-10
3.54411e-10
3.05478e-10
2.58632e-10
2.14459e-10
1.73498e-10
1.36236e-10
1.03079e-10
7.43333e-11
5.01862e-11
3.06998e-11
1.589e-11
5.96288e-12
1.17256e-12
6.83984e-14
4.11371e-16
9.401e-10
1.1576e-09
1.4228e-09
1.72052e-09
2.02398e-09
2.31964e-09
2.59932e-09
2.85905e-09
3.09687e-09
3.3118e-09
3.50334e-09
3.67117e-09
3.81514e-09
3.93515e-09
4.03119e-09
4.10329e-09
4.15156e-09
4.17616e-09
4.17736e-09
4.15552e-09
4.11108e-09
4.0446e-09
3.95685e-09
3.84869e-09
3.72116e-09
3.57551e-09
3.41314e-09
3.23566e-09
3.04489e-09
2.84282e-09
2.63164e-09
2.41369e-09
2.19146e-09
1.96755e-09
1.74463e-09
1.52542e-09
1.31261e-09
1.10884e-09
9.1659e-10
7.38186e-10
5.75671e-10
4.30755e-10
3.0477e-10
1.98762e-10
1.13921e-10
5.23554e-11
1.63513e-11
2.66322e-12
1.41614e-13
8.38619e-16
3.66226e-09
4.16182e-09
4.85305e-09
5.67505e-09
6.54784e-09
7.4237e-09
8.26943e-09
9.06543e-09
9.80045e-09
1.04681e-08
1.10649e-08
1.15887e-08
1.20384e-08
1.24132e-08
1.27128e-08
1.29373e-08
1.30868e-08
1.31619e-08
1.31633e-08
1.30921e-08
1.29496e-08
1.27377e-08
1.24588e-08
1.21154e-08
1.17111e-08
1.12495e-08
1.07351e-08
1.01731e-08
9.56912e-09
8.92945e-09
8.26097e-09
7.57108e-09
6.8676e-09
6.15871e-09
5.4528e-09
4.75836e-09
4.08381e-09
3.4373e-09
2.82659e-09
2.25884e-09
1.74052e-09
1.27751e-09
8.75553e-10
5.41615e-10
2.85357e-10
1.16553e-10
3.20727e-11
4.78676e-12
2.4643e-13
1.45063e-15
1.10809e-08
1.20242e-08
1.34746e-08
1.52927e-08
1.72938e-08
1.93587e-08
2.13958e-08
2.33434e-08
2.51617e-08
2.68257e-08
2.83202e-08
2.96359e-08
3.07671e-08
3.17104e-08
3.24639e-08
3.3027e-08
3.33998e-08
3.35832e-08
3.3579e-08
3.33897e-08
3.30187e-08
3.24706e-08
3.17513e-08
3.08676e-08
2.98278e-08
2.86419e-08
2.7321e-08
2.58781e-08
2.43277e-08
2.26857e-08
2.09698e-08
1.91985e-08
1.73918e-08
1.55704e-08
1.37555e-08
1.19685e-08
1.02306e-08
8.56249e-09
6.98388e-09
5.51387e-09
4.17136e-09
2.97679e-09
1.9549e-09
1.1365e-09
5.51881e-10
2.06256e-10
5.27934e-11
7.57087e-12
3.84374e-13
2.25559e-15
2.80015e-08
2.96119e-08
3.22104e-08
3.56532e-08
3.95646e-08
4.37019e-08
4.78673e-08
5.19141e-08
5.57386e-08
5.92703e-08
6.24622e-08
6.52841e-08
6.77162e-08
6.97465e-08
7.13673e-08
7.25749e-08
7.3368e-08
7.37475e-08
7.37166e-08
7.32801e-08
7.2445e-08
7.12213e-08
6.96212e-08
6.76597e-08
6.53548e-08
6.27278e-08
5.98033e-08
5.66093e-08
5.31775e-08
4.95427e-08
4.57429e-08
4.1819e-08
3.78141e-08
3.37732e-08
2.97426e-08
2.57687e-08
2.18984e-08
1.81778e-08
1.46539e-08
1.13758e-08
8.39876e-09
5.78924e-09
3.62612e-09
1.98632e-09
9.03657e-10
3.18676e-10
7.84084e-11
1.1024e-11
5.55546e-13
3.25322e-15
6.18529e-08
6.43808e-08
6.86243e-08
7.44586e-08
8.12584e-08
8.86045e-08
9.61353e-08
1.03564e-07
1.10671e-07
1.17297e-07
1.23329e-07
1.28689e-07
1.33323e-07
1.37197e-07
1.40287e-07
1.42581e-07
1.44072e-07
1.44758e-07
1.44643e-07
1.43735e-07
1.42046e-07
1.39595e-07
1.36405e-07
1.32503e-07
1.27926e-07
1.22713e-07
1.16912e-07
1.10578e-07
1.03771e-07
9.65595e-08
8.90167e-08
8.12218e-08
7.32588e-08
6.52155e-08
5.71823e-08
4.92525e-08
4.15218e-08
3.40905e-08
2.70673e-08
2.05767e-08
1.47666e-08
9.80845e-09
5.87222e-09
3.06127e-09
1.32898e-09
4.52036e-10
1.0879e-10
1.51312e-11
7.5903e-13
4.437e-15
1.23196e-07
1.26967e-07
1.33431e-07
1.42508e-07
1.5331e-07
1.6519e-07
1.77562e-07
1.89932e-07
2.01906e-07
2.13175e-07
2.2351e-07
2.32743e-07
2.40754e-07
2.4746e-07
2.52804e-07
2.56751e-07
2.59277e-07
2.60375e-07
2.60044e-07
2.58295e-07
2.55146e-07
2.50628e-07
2.44779e-07
2.37647e-07
2.29293e-07
2.19788e-07
2.09216e-07
1.97672e-07
1.85264e-07
1.72112e-07
1.58345e-07
1.44106e-07
1.29544e-07
1.1482e-07
1.00102e-07
8.55674e-08
7.14093e-08
5.78415e-08
4.51094e-08
3.35006e-08
2.33427e-08
1.49678e-08
8.62036e-09
4.32727e-09
1.81925e-09
6.0492e-10
1.43682e-10
1.98557e-11
9.93159e-13
5.79908e-15
2.25989e-07
2.31453e-07
2.4088e-07
2.53944e-07
2.69889e-07
2.87712e-07
3.06525e-07
3.25563e-07
3.44182e-07
3.61861e-07
3.78189e-07
3.92852e-07
4.05617e-07
4.16314e-07
4.24821e-07
4.31055e-07
4.34963e-07
4.36515e-07
4.35699e-07
4.32525e-07
4.27015e-07
4.19212e-07
4.09176e-07
3.96982e-07
3.82725e-07
3.66521e-07
3.48505e-07
3.28833e-07
3.0768e-07
2.85246e-07
2.61746e-07
2.3742e-07
2.12524e-07
1.87338e-07
1.62167e-07
1.37347e-07
1.1326e-07
9.03442e-08
6.91075e-08
5.01199e-08
3.39634e-08
2.11178e-08
1.17896e-08
5.75749e-09
2.36869e-09
7.76147e-10
1.8278e-10
2.5147e-11
1.25502e-12
7.3225e-15
3.87366e-07
3.95099e-07
4.08098e-07
4.26051e-07
4.4826e-07
4.73398e-07
5.00233e-07
5.27667e-07
5.5474e-07
5.80646e-07
6.04722e-07
6.26444e-07
6.45404e-07
6.61292e-07
6.7388e-07
6.83002e-07
6.88546e-07
6.90437e-07
6.8864e-07
6.83148e-07
6.73983e-07
6.61199e-07
6.44877e-07
6.25126e-07
6.02087e-07
5.75932e-07
5.46866e-07
5.15128e-07
4.80994e-07
4.44772e-07
4.06811e-07
3.67499e-07
3.27264e-07
2.86591e-07
2.46023e-07
2.06186e-07
1.67803e-07
1.31707e-07
9.88214e-08
7.00972e-08
4.63608e-08
2.81095e-08
1.53165e-08
7.33334e-09
2.97419e-09
9.6566e-10
2.26169e-10
3.10167e-11
1.54414e-12
8.9829e-15
6.26944e-07
6.37797e-07
6.55025e-07
6.78759e-07
7.08185e-07
7.41816e-07
7.78051e-07
8.1541e-07
8.5256e-07
8.88338e-07
9.21763e-07
9.52028e-07
9.78483e-07
1.00062e-06
1.01804e-06
1.03046e-06
1.03766e-06
1.03949e-06
1.03586e-06
1.02673e-06
1.01212e-06
9.92064e-07
9.66676e-07
9.36097e-07
9.00521e-07
8.60189e-07
8.154e-07
7.66503e-07
7.13911e-07
6.58096e-07
5.99601e-07
5.39049e-07
4.77151e-07
4.14728e-07
3.52736e-07
2.92287e-07
2.34658e-07
1.81269e-07
1.3359e-07
9.29513e-08
6.02821e-08
3.58502e-08
1.91688e-08
9.045e-09
3.63555e-09
1.17529e-09
2.74727e-10
3.76449e-11
1.87415e-12
1.09167e-14
9.65412e-07
9.80786e-07
1.00306e-06
1.0336e-06
1.07069e-06
1.11359e-06
1.16019e-06
1.20858e-06
1.25699e-06
1.30386e-06
1.34781e-06
1.3877e-06
1.42256e-06
1.45161e-06
1.47425e-06
1.48997e-06
1.49843e-06
1.49935e-06
1.49255e-06
1.47792e-06
1.45544e-06
1.42514e-06
1.38712e-06
1.34158e-06
1.28875e-06
1.22897e-06
1.16264e-06
1.09027e-06
1.01245e-06
9.29916e-07
8.4349e-07
7.54165e-07
6.63102e-07
5.71672e-07
4.81477e-07
3.94371e-07
3.12418e-07
2.37787e-07
1.72519e-07
1.18195e-07
7.55603e-08
4.43291e-08
2.33664e-08
1.09114e-08
4.36745e-09
1.41309e-09
3.30854e-10
4.53111e-11
2.24527e-12
1.298e-14
1.42235e-06
1.44455e-06
1.47283e-06
1.51088e-06
1.55603e-06
1.60851e-06
1.66585e-06
1.72572e-06
1.7859e-06
1.84437e-06
1.89934e-06
1.94925e-06
1.99277e-06
2.02878e-06
2.05637e-06
2.07481e-06
2.08353e-06
2.08207e-06
2.07012e-06
2.04747e-06
2.01399e-06
1.9697e-06
1.91468e-06
1.84913e-06
1.77336e-06
1.6878e-06
1.593e-06
1.48968e-06
1.37871e-06
1.26115e-06
1.13829e-06
1.01168e-06
8.83173e-07
7.54958e-07
6.29574e-07
5.09877e-07
3.98911e-07
2.99656e-07
2.14634e-07
1.45423e-07
9.21489e-08
5.35277e-08
2.7921e-08
1.2992e-08
5.23242e-09
1.71605e-09
4.07756e-10
5.64672e-11
2.78523e-12
1.50694e-14
2.01312e-06
2.04585e-06
2.08135e-06
2.12741e-06
2.18109e-06
2.24282e-06
2.31051e-06
2.38145e-06
2.45298e-06
2.52265e-06
2.58818e-06
2.64758e-06
2.69909e-06
2.74122e-06
2.77269e-06
2.79246e-06
2.79967e-06
2.79364e-06
2.77384e-06
2.7399e-06
2.69158e-06
2.62879e-06
2.55159e-06
2.46018e-06
2.35492e-06
2.23637e-06
2.10527e-06
1.96262e-06
1.80969e-06
1.64804e-06
1.47963e-06
1.30683e-06
1.13247e-06
9.59863e-07
7.92773e-07
6.35261e-07
4.91429e-07
3.65007e-07
2.5884e-07
1.74411e-07
1.29498e-07
7.03752e-08
3.72086e-08
1.78079e-08
7.57058e-09
2.6922e-09
7.25746e-10
1.24384e-10
9.11801e-12
6.58847e-14
2.74516e-06
2.79399e-06
2.83847e-06
2.89326e-06
2.95611e-06
3.02578e-06
3.10248e-06
3.18307e-06
3.26449e-06
3.34381e-06
3.41833e-06
3.48558e-06
3.54336e-06
3.58975e-06
3.62306e-06
3.64187e-06
3.64497e-06
3.63138e-06
3.60031e-06
3.55114e-06
3.48346e-06
3.39706e-06
3.2919e-06
3.16819e-06
3.02634e-06
2.86706e-06
2.69136e-06
2.50064e-06
2.29668e-06
2.08181e-06
1.85888e-06
1.63138e-06
1.40345e-06
1.17981e-06
9.65663e-07
7.66344e-07
5.86928e-07
4.31651e-07
3.03304e-07
2.02559e-07
1.4795e-07
8.04804e-08
4.1908e-08
2.00693e-08
8.65841e-09
3.13845e-09
8.56393e-10
1.47046e-10
1.03688e-11
6.67353e-14
3.61404e-06
3.68673e-06
3.74256e-06
3.80675e-06
3.8783e-06
3.95537e-06
4.03902e-06
4.12689e-06
4.21562e-06
4.30194e-06
4.38272e-06
4.45505e-06
4.51628e-06
4.56403e-06
4.59618e-06
4.61087e-06
4.6065e-06
4.58169e-06
4.53533e-06
4.46652e-06
4.37459e-06
4.25914e-06
4.12005e-06
3.95747e-06
3.7719e-06
3.56425e-06
3.33589e-06
3.08873e-06
2.8253e-06
2.54889e-06
2.26356e-06
1.97422e-06
1.68658e-06
1.407e-06
1.14219e-06
8.9871e-07
6.82382e-07
4.97602e-07
3.46785e-07
2.29664e-07
1.65648e-07
8.97791e-08
4.64737e-08
2.23681e-08
9.76689e-09
3.56384e-09
9.72358e-10
1.68114e-10
1.19332e-11
7.73446e-14
4.59995e-06
4.70619e-06
4.77636e-06
4.8508e-06
4.93058e-06
5.0148e-06
5.10258e-06
5.19443e-06
5.28696e-06
5.37662e-06
5.45993e-06
5.53361e-06
5.59456e-06
5.63994e-06
5.66719e-06
5.67398e-06
5.65825e-06
5.61821e-06
5.55234e-06
5.45938e-06
5.33837e-06
5.1887e-06
5.01008e-06
4.80263e-06
4.56698e-06
4.30427e-06
4.01633e-06
3.70577e-06
3.37607e-06
3.0317e-06
2.67821e-06
2.32217e-06
1.97106e-06
1.63296e-06
1.31606e-06
1.02797e-06
7.7498e-07
5.6131e-07
3.88731e-07
2.56043e-07
1.83553e-07
9.95599e-08
5.16063e-08
2.50015e-08
1.10042e-08
3.50133e-09
9.14106e-10
1.56373e-10
1.02587e-11
3.92694e-14
5.66556e-06
5.81602e-06
5.90387e-06
5.98947e-06
6.07695e-06
6.16706e-06
6.25733e-06
6.34946e-06
6.44171e-06
6.53043e-06
6.61196e-06
6.68268e-06
6.73912e-06
6.77801e-06
6.79632e-06
6.79126e-06
6.7603e-06
6.70116e-06
6.61188e-06
6.49082e-06
6.33667e-06
6.14855e-06
5.92601e-06
5.66917e-06
5.37875e-06
5.05626e-06
4.70409e-06
4.32567e-06
3.92561e-06
3.50981e-06
3.08546e-06
2.66095e-06
2.24558e-06
1.84913e-06
1.48108e-06
1.14986e-06
8.61923e-07
6.21085e-07
4.28267e-07
2.81293e-07
2.0093e-07
1.09755e-07
5.71043e-08
2.7812e-08
1.22713e-08
3.89681e-09
1.04655e-09
1.82167e-10
1.20863e-11
4.88604e-14
6.75631e-06
6.96068e-06
7.06929e-06
7.1668e-06
7.26134e-06
7.35545e-06
7.4479e-06
7.53699e-06
7.62479e-06
7.70831e-06
7.78373e-06
7.84727e-06
7.89513e-06
7.92365e-06
7.92938e-06
7.90904e-06
7.85962e-06
7.77838e-06
7.66289e-06
7.51107e-06
7.32126e-06
7.0923e-06
6.8236e-06
6.51523e-06
6.16812e-06
5.78415e-06
5.36637e-06
4.91917e-06
4.44841e-06
3.96149e-06
3.46734e-06
2.97617e-06
2.49908e-06
2.04731e-06
1.63144e-06
1.2604e-06
9.40582e-07
6.75209e-07
4.64245e-07
3.04456e-07
2.16727e-07
1.19469e-07
6.23381e-08
3.04461e-08
1.3461e-08
4.27971e-09
1.15607e-09
1.99652e-10
1.34797e-11
5.56505e-14
7.80371e-06
8.0681e-06
8.1993e-06
8.30896e-06
8.4098e-06
8.50638e-06
8.59883e-06
8.68456e-06
8.76482e-06
8.8396e-06
8.90541e-06
8.95839e-06
8.99454e-06
9.00987e-06
9.0005e-06
8.96274e-06
8.89311e-06
8.78839e-06
8.64571e-06
8.46258e-06
8.23698e-06
7.96747e-06
7.65333e-06
7.29464e-06
6.89251e-06
6.44927e-06
5.96867e-06
5.45608e-06
4.91862e-06
4.36521e-06
3.80645e-06
3.25426e-06
2.72127e-06
2.22001e-06
1.76185e-06
1.35597e-06
1.00851e-06
7.22023e-07
4.9551e-07
3.2469e-07
2.30327e-07
1.28034e-07
6.69254e-08
3.27676e-08
1.4538e-08
4.6472e-09
1.26794e-09
2.23322e-10
1.55562e-11
6.12946e-14
8.73178e-06
9.05603e-06
9.20944e-06
9.33046e-06
9.43657e-06
9.53437e-06
9.62517e-06
9.70782e-06
9.77983e-06
9.84373e-06
9.89793e-06
9.93862e-06
9.96165e-06
9.96274e-06
9.93766e-06
9.88232e-06
9.79283e-06
9.66556e-06
9.49723e-06
9.28496e-06
9.02643e-06
8.71997e-06
8.36471e-06
7.96079e-06
7.50951e-06
7.01363e-06
6.47757e-06
5.90763e-06
5.31209e-06
4.70124e-06
4.08714e-06
3.48315e-06
2.9032e-06
2.36076e-06
1.86773e-06
1.43339e-06
1.06352e-06
7.60009e-07
5.21006e-07
3.4133e-07
2.41434e-07
1.35296e-07
7.0874e-08
3.48224e-08
1.5544e-08
5.03858e-09
1.39318e-09
2.52453e-10
1.52554e-11
1.61128e-13
9.46612e-06
9.84207e-06
1.00144e-05
1.01447e-05
1.02546e-05
1.03526e-05
1.04411e-05
1.05195e-05
1.0586e-05
1.06394e-05
1.0682e-05
1.07109e-05
1.07216e-05
1.07097e-05
1.06707e-05
1.06e-05
1.04935e-05
1.03472e-05
1.01575e-05
9.92132e-06
9.63595e-06
9.29959e-06
8.9113e-06
8.47122e-06
7.98086e-06
7.44334e-06
6.86365e-06
6.24883e-06
5.60813e-06
4.95292e-06
4.29638e-06
3.65299e-06
3.03758e-06
2.4643e-06
1.94538e-06
1.49005e-06
1.10377e-06
7.87862e-07
5.39805e-07
3.53754e-07
2.4964e-07
1.41158e-07
7.41856e-08
3.66146e-08
1.64825e-08
5.43542e-09
1.54616e-09
2.91093e-10
1.84078e-11
2.03073e-13
9.94909e-06
1.03614e-05
1.05473e-05
1.06837e-05
1.07959e-05
1.08936e-05
1.09799e-05
1.10547e-05
1.11167e-05
1.11638e-05
1.11973e-05
1.12171e-05
1.12187e-05
1.11973e-05
1.11481e-05
1.10666e-05
1.09482e-05
1.07888e-05
1.05846e-05
1.03321e-05
1.00286e-05
9.67227e-06
9.26198e-06
8.79795e-06
8.28182e-06
7.71697e-06
7.10875e-06
6.46474e-06
5.79481e-06
5.11102e-06
4.42732e-06
3.75884e-06
3.12101e-06
2.52835e-06
1.99327e-06
1.52493e-06
1.12853e-06
8.05026e-07
5.51461e-07
3.61575e-07
2.5448e-07
1.45307e-07
7.66452e-08
3.79991e-08
1.72482e-08
5.79359e-09
1.72261e-09
3.58538e-10
4.5656e-11
1.04287e-12
1.01255e-05
1.05515e-05
1.07423e-05
1.08807e-05
1.09932e-05
1.10903e-05
1.11751e-05
1.12481e-05
1.13079e-05
1.13525e-05
1.13819e-05
1.13977e-05
1.13955e-05
1.13702e-05
1.13169e-05
1.1231e-05
1.1108e-05
1.09435e-05
1.07336e-05
1.0475e-05
1.01648e-05
9.80105e-06
9.3827e-06
8.90997e-06
8.38456e-06
7.80994e-06
7.1916e-06
6.53731e-06
5.85715e-06
5.16346e-06
4.4704e-06
3.79337e-06
3.14796e-06
2.54883e-06
2.0084e-06
1.53582e-06
1.13618e-06
8.10293e-07
5.55032e-07
3.63989e-07
2.55264e-07
1.47185e-07
7.78051e-08
3.86682e-08
1.76412e-08
5.99109e-09
1.83362e-09
4.18762e-10
6.94404e-11
5.39474e-12
9.97812e-06
1.03918e-05
1.05775e-05
1.07129e-05
1.08236e-05
1.09196e-05
1.10041e-05
1.10773e-05
1.11376e-05
1.11829e-05
1.12147e-05
1.12329e-05
1.12331e-05
1.12102e-05
1.11597e-05
1.10767e-05
1.0957e-05
1.07963e-05
1.05907e-05
1.03369e-05
1.00322e-05
9.67463e-06
9.26319e-06
8.79808e-06
8.28095e-06
7.71522e-06
7.10624e-06
6.46162e-06
5.79123e-06
5.10716e-06
4.42333e-06
3.75489e-06
3.11725e-06
2.5249e-06
1.99022e-06
1.52234e-06
1.12643e-06
8.03417e-07
5.5031e-07
3.60823e-07
2.51883e-07
1.46371e-07
7.73222e-08
3.83847e-08
1.74705e-08
5.85778e-09
1.75669e-09
3.77369e-10
4.89957e-11
1.42676e-12
9.52306e-06
9.90092e-06
1.00725e-05
1.02e-05
1.03068e-05
1.04015e-05
1.04866e-05
1.05617e-05
1.06248e-05
1.06749e-05
1.07144e-05
1.07403e-05
1.07482e-05
1.07336e-05
1.06918e-05
1.06184e-05
1.05093e-05
1.03605e-05
1.01683e-05
9.92962e-06
9.64185e-06
9.30319e-06
8.9127e-06
8.47057e-06
7.97834e-06
7.43916e-06
6.85805e-06
6.2421e-06
5.60057e-06
4.94484e-06
4.28812e-06
3.64486e-06
3.02986e-06
2.45723e-06
1.93914e-06
1.48476e-06
1.09948e-06
7.8456e-07
5.37428e-07
3.52212e-07
2.44744e-07
1.42997e-07
7.53177e-08
3.72315e-08
1.68073e-08
5.49607e-09
1.5767e-09
3.03204e-10
2.98254e-11
2.14631e-13
8.81352e-06
9.13926e-06
9.2906e-06
9.40719e-06
9.50855e-06
9.6015e-06
9.68747e-06
9.76534e-06
9.83259e-06
9.89189e-06
9.94182e-06
9.97843e-06
9.9975e-06
9.99472e-06
9.96586e-06
9.90681e-06
9.81368e-06
9.68283e-06
9.51098e-06
9.29528e-06
9.03341e-06
8.72374e-06
8.36543e-06
7.95866e-06
7.50478e-06
7.0066e-06
6.46859e-06
5.89708e-06
5.30042e-06
4.6889e-06
4.0746e-06
3.47085e-06
2.89155e-06
2.3501e-06
1.85832e-06
1.42541e-06
1.05704e-06
7.55006e-07
5.17391e-07
3.39001e-07
2.34555e-07
1.37679e-07
7.22731e-08
3.55423e-08
1.58929e-08
5.08344e-09
1.41573e-09
2.58775e-10
2.40809e-11
1.63742e-13
7.9015e-06
8.16699e-06
8.2953e-06
8.39943e-06
8.49449e-06
8.58522e-06
8.67186e-06
8.75189e-06
8.82649e-06
8.89594e-06
8.95671e-06
9.00482e-06
9.03623e-06
9.04694e-06
9.03305e-06
8.99084e-06
8.91684e-06
8.80783e-06
8.66093e-06
8.47366e-06
8.24405e-06
7.97069e-06
7.65288e-06
7.29076e-06
6.88551e-06
6.43951e-06
5.95657e-06
5.44211e-06
4.90332e-06
4.34913e-06
3.79016e-06
3.2383e-06
2.70617e-06
2.20618e-06
1.74963e-06
1.34558e-06
1.00006e-06
7.15496e-07
4.90789e-07
3.21657e-07
2.21706e-07
1.30858e-07
6.85279e-08
3.35536e-08
1.48865e-08
4.68524e-09
1.28309e-09
2.27942e-10
1.61632e-11
6.65945e-14
6.86321e-06
7.06783e-06
7.17293e-06
7.26427e-06
7.35247e-06
7.44019e-06
7.52633e-06
7.6092e-06
7.69103e-06
7.76889e-06
7.83889e-06
7.89716e-06
7.93989e-06
7.9634e-06
7.96419e-06
7.939e-06
7.8848e-06
7.79884e-06
7.67871e-06
7.52234e-06
7.32811e-06
7.0949e-06
6.82214e-06
6.50999e-06
6.15942e-06
5.77238e-06
5.35199e-06
4.90271e-06
4.43044e-06
3.94263e-06
3.44823e-06
2.95744e-06
2.4813e-06
2.03099e-06
1.61697e-06
1.24805e-06
9.30501e-07
6.67416e-07
4.58614e-07
3.00864e-07
2.06685e-07
1.22766e-07
6.41914e-08
3.13332e-08
1.38315e-08
4.3068e-09
1.16693e-09
2.02406e-10
1.33669e-11
5.36746e-14
5.77427e-06
5.92409e-06
6.00814e-06
6.08738e-06
6.16842e-06
6.25207e-06
6.33597e-06
6.42194e-06
6.50834e-06
6.59146e-06
6.66756e-06
6.73299e-06
6.78426e-06
6.81808e-06
6.83139e-06
6.82138e-06
6.78552e-06
6.72155e-06
6.62751e-06
6.50177e-06
6.34306e-06
6.15054e-06
5.92381e-06
5.66303e-06
5.36901e-06
5.04331e-06
4.68839e-06
4.30776e-06
3.90609e-06
3.48931e-06
3.06464e-06
2.64046e-06
2.22606e-06
1.83112e-06
1.46503e-06
1.13608e-06
8.5061e-07
6.12298e-07
4.21878e-07
2.77216e-07
1.89632e-07
1.13446e-07
5.92204e-08
2.88339e-08
1.26926e-08
3.92991e-09
1.05821e-09
1.85064e-10
1.20384e-11
4.64674e-14
4.70413e-06
4.80895e-06
4.8753e-06
4.94362e-06
5.01727e-06
5.09542e-06
5.1772e-06
5.26336e-06
5.35045e-06
5.43486e-06
5.51307e-06
5.58174e-06
5.63778e-06
5.67833e-06
5.70077e-06
5.70279e-06
5.68234e-06
5.63761e-06
5.5671e-06
5.46959e-06
5.34413e-06
5.19015e-06
5.00741e-06
4.79609e-06
4.55687e-06
4.29097e-06
4.00028e-06
3.68748e-06
3.35611e-06
3.01069e-06
2.6568e-06
2.30101e-06
1.95078e-06
1.61413e-06
1.29916e-06
1.01335e-06
7.62882e-07
5.51822e-07
3.81731e-07
2.51528e-07
1.71664e-07
1.03247e-07
5.37116e-08
2.60527e-08
1.14533e-08
3.53651e-09
9.28571e-10
1.60685e-10
1.06301e-11
3.93721e-14
3.70877e-06
3.77949e-06
3.83173e-06
3.89037e-06
3.95643e-06
4.02807e-06
4.10648e-06
4.18936e-06
4.27329e-06
4.35495e-06
4.43117e-06
4.49902e-06
4.55582e-06
4.59917e-06
4.62693e-06
4.63725e-06
4.62852e-06
4.59939e-06
4.54874e-06
4.47569e-06
4.37961e-06
4.26014e-06
4.11719e-06
3.95097e-06
3.76204e-06
3.55136e-06
3.32036e-06
3.07102e-06
2.80595e-06
2.52845e-06
2.24264e-06
1.95343e-06
1.66653e-06
1.38824e-06
1.1252e-06
8.83889e-07
6.69986e-07
4.87728e-07
3.3934e-07
2.24749e-07
1.53485e-07
9.29443e-08
4.82141e-08
2.32367e-08
1.01672e-08
3.70604e-09
1.009e-09
1.77408e-10
1.29665e-11
8.4878e-14
2.82719e-06
2.87382e-06
2.91515e-06
2.96516e-06
3.02337e-06
3.08846e-06
3.16081e-06
3.23725e-06
3.31464e-06
3.39002e-06
3.46066e-06
3.52407e-06
3.57803e-06
3.62059e-06
3.65007e-06
3.66504e-06
3.66432e-06
3.6469e-06
3.61201e-06
3.55908e-06
3.48771e-06
3.39771e-06
3.28909e-06
3.1621e-06
3.01721e-06
2.85517e-06
2.67706e-06
2.48431e-06
2.27879e-06
2.06284e-06
1.83937e-06
1.61188e-06
1.3845e-06
1.16194e-06
9.49334e-07
7.5194e-07
5.74722e-07
4.21775e-07
2.95782e-07
1.97616e-07
1.35763e-07
8.33499e-08
4.32778e-08
2.07418e-08
8.99417e-09
3.27458e-09
8.95364e-10
1.53637e-10
1.07955e-11
6.94771e-14
2.0809e-06
2.11148e-06
2.14438e-06
2.18656e-06
2.2365e-06
2.29462e-06
2.35888e-06
2.42652e-06
2.49483e-06
2.56131e-06
2.62369e-06
2.67993e-06
2.72828e-06
2.76722e-06
2.79549e-06
2.81203e-06
2.81601e-06
2.80673e-06
2.78369e-06
2.74654e-06
2.69505e-06
2.62918e-06
2.54901e-06
2.45477e-06
2.34688e-06
2.22592e-06
2.0927e-06
1.94825e-06
1.79389e-06
1.63122e-06
1.46225e-06
1.28934e-06
1.11535e-06
9.43579e-07
7.77749e-07
6.21865e-07
4.79953e-07
3.55662e-07
2.51823e-07
1.70068e-07
1.16376e-07
7.37963e-08
3.87387e-08
1.85103e-08
7.93479e-09
2.85375e-09
7.75593e-10
1.33066e-10
9.41729e-12
6.16499e-14
1.47581e-06
1.49612e-06
1.52238e-06
1.55746e-06
1.59978e-06
1.64956e-06
1.70433e-06
1.7617e-06
1.81942e-06
1.87544e-06
1.92796e-06
1.97538e-06
2.01639e-06
2.04985e-06
2.07487e-06
2.0907e-06
2.09679e-06
2.09269e-06
2.0781e-06
2.05281e-06
2.01675e-06
1.96992e-06
1.91245e-06
1.84456e-06
1.7666e-06
1.67903e-06
1.58245e-06
1.47759e-06
1.36538e-06
1.2469e-06
1.12348e-06
9.96695e-07
8.68398e-07
7.4078e-07
6.16366e-07
4.97976e-07
3.88611e-07
2.91205e-07
2.08309e-07
1.41692e-07
9.00462e-08
5.21528e-08
2.72066e-08
1.26589e-08
5.11876e-09
1.68309e-09
3.99304e-10
5.54447e-11
2.72255e-12
1.46919e-14
1.00564e-06
1.01948e-06
1.0403e-06
1.06869e-06
1.10377e-06
1.14477e-06
1.18954e-06
1.23614e-06
1.28276e-06
1.32782e-06
1.36995e-06
1.40796e-06
1.44091e-06
1.46801e-06
1.48866e-06
1.50236e-06
1.50877e-06
1.50763e-06
1.49876e-06
1.48207e-06
1.45755e-06
1.42525e-06
1.3853e-06
1.33791e-06
1.28334e-06
1.22195e-06
1.15418e-06
1.08056e-06
1.00172e-06
9.18401e-07
8.31465e-07
7.4192e-07
6.50942e-07
5.59904e-07
4.70408e-07
3.8429e-07
3.03585e-07
2.304e-07
1.66727e-07
1.14362e-07
7.33772e-08
4.30187e-08
2.27235e-08
1.06464e-08
4.27769e-09
1.38549e-09
3.24729e-10
4.4438e-11
2.20019e-12
1.27465e-14
6.55733e-07
6.65452e-07
6.81717e-07
7.0399e-07
7.32095e-07
7.64469e-07
7.99483e-07
8.35624e-07
8.71538e-07
9.06049e-07
9.38168e-07
9.67083e-07
9.92145e-07
1.01285e-06
1.0288e-06
1.03972e-06
1.04539e-06
1.04568e-06
1.0405e-06
1.02983e-06
1.01368e-06
9.92123e-07
9.65274e-07
9.33295e-07
8.96396e-07
8.54841e-07
8.08945e-07
7.59081e-07
7.0568e-07
6.49235e-07
5.90308e-07
5.29533e-07
4.67637e-07
4.05448e-07
3.43926e-07
2.84183e-07
2.27493e-07
1.75226e-07
1.28731e-07
8.94419e-08
5.80437e-08
3.45386e-08
1.85103e-08
8.74766e-09
3.52284e-09
1.13954e-09
2.66422e-10
3.64631e-11
1.81123e-12
1.05288e-14
4.06881e-07
4.13846e-07
4.26269e-07
4.43312e-07
4.64719e-07
4.89088e-07
5.15161e-07
5.41816e-07
5.68082e-07
5.93142e-07
6.1633e-07
6.37122e-07
6.55113e-07
6.69996e-07
6.81548e-07
6.89608e-07
6.94069e-07
6.94862e-07
6.91958e-07
6.8536e-07
6.75098e-07
6.61235e-07
6.43863e-07
6.23103e-07
5.99109e-07
5.72066e-07
5.42193e-07
5.09744e-07
4.75008e-07
4.38308e-07
4.00004e-07
3.60495e-07
3.2022e-07
2.79668e-07
2.39389e-07
2.00012e-07
1.62269e-07
1.26983e-07
9.49778e-08
6.72011e-08
4.43925e-08
2.69076e-08
1.46709e-08
7.02381e-09
2.85111e-09
9.261e-10
2.16905e-10
2.97148e-11
1.47702e-12
8.58755e-15
2.3844e-07
2.43433e-07
2.5256e-07
2.65117e-07
2.80625e-07
2.98019e-07
3.16394e-07
3.34968e-07
3.5309e-07
3.70234e-07
3.85989e-07
4.00044e-07
4.12169e-07
4.22196e-07
4.3001e-07
4.35531e-07
4.38709e-07
4.39519e-07
4.37956e-07
4.34031e-07
4.27777e-07
4.19242e-07
4.08491e-07
3.95609e-07
3.807e-07
3.63887e-07
3.45315e-07
3.25149e-07
3.03575e-07
2.808e-07
2.57048e-07
2.32565e-07
2.07616e-07
1.82485e-07
1.5748e-07
1.3294e-07
1.0925e-07
8.68576e-08
6.62224e-08
4.78825e-08
3.23732e-08
2.00984e-08
1.12097e-08
5.46814e-09
2.24921e-09
7.36519e-10
1.73223e-10
2.37735e-11
1.18236e-12
6.87447e-15
1.30602e-07
1.34118e-07
1.40459e-07
1.49297e-07
1.59896e-07
1.71566e-07
1.83709e-07
1.95824e-07
2.0751e-07
2.18461e-07
2.28448e-07
2.37306e-07
2.44918e-07
2.51205e-07
2.56112e-07
2.59608e-07
2.61672e-07
2.62299e-07
2.61492e-07
2.59266e-07
2.55643e-07
2.50657e-07
2.44351e-07
2.36779e-07
2.28007e-07
2.1811e-07
2.07179e-07
1.95315e-07
1.82631e-07
1.69252e-07
1.55314e-07
1.40962e-07
1.26352e-07
1.11646e-07
9.70167e-08
8.26419e-08
6.87142e-08
5.54548e-08
4.30924e-08
3.18923e-08
2.21543e-08
1.41692e-08
8.1424e-09
4.07872e-09
1.71209e-09
5.68043e-10
1.34546e-10
1.85233e-11
9.22186e-13
5.3621e-15
6.59025e-08
6.83194e-08
7.25425e-08
7.829e-08
8.50176e-08
9.22784e-08
9.97041e-08
1.07004e-07
1.13957e-07
1.20407e-07
1.26241e-07
1.31385e-07
1.35788e-07
1.39417e-07
1.42252e-07
1.44281e-07
1.45499e-07
1.45907e-07
1.45511e-07
1.44321e-07
1.42352e-07
1.39624e-07
1.36162e-07
1.32e-07
1.27173e-07
1.21726e-07
1.15711e-07
1.09184e-07
1.0221e-07
9.48599e-08
8.72101e-08
7.93424e-08
7.1343e-08
6.33016e-08
5.53111e-08
4.74655e-08
3.98592e-08
3.2595e-08
2.5777e-08
1.95194e-08
1.3956e-08
9.23803e-09
5.51282e-09
2.86491e-09
1.24005e-09
4.2027e-10
1.00739e-10
1.39435e-11
6.9541e-13
4.04417e-15
2.99968e-08
3.15778e-08
3.42015e-08
3.76311e-08
4.15316e-08
4.56443e-08
4.97685e-08
5.37568e-08
5.75061e-08
6.09476e-08
6.40366e-08
6.67445e-08
6.90535e-08
7.09528e-08
7.24364e-08
7.35016e-08
7.41483e-08
7.43783e-08
7.41957e-08
7.36068e-08
7.262e-08
7.12464e-08
6.94996e-08
6.73962e-08
6.49559e-08
6.22016e-08
5.91598e-08
5.58602e-08
5.23363e-08
4.86245e-08
4.47644e-08
4.07982e-08
3.67702e-08
3.27264e-08
2.8714e-08
2.47804e-08
2.09715e-08
1.73338e-08
1.39126e-08
1.07532e-08
7.90489e-09
5.42585e-09
3.38441e-09
1.84622e-09
8.36357e-10
2.93525e-10
7.18461e-11
1.00393e-11
5.02229e-13
2.92174e-15
1.194e-08
1.28903e-08
1.43756e-08
1.62058e-08
1.82161e-08
2.02793e-08
2.23035e-08
2.42275e-08
2.60126e-08
2.76352e-08
2.90815e-08
3.03433e-08
3.14159e-08
3.22968e-08
3.29847e-08
3.34796e-08
3.37822e-08
3.38938e-08
3.38167e-08
3.35541e-08
3.311e-08
3.24896e-08
3.16995e-08
3.07472e-08
2.96418e-08
2.83941e-08
2.70162e-08
2.55217e-08
2.39261e-08
2.22461e-08
2.05e-08
1.87071e-08
1.68879e-08
1.50634e-08
1.32553e-08
1.14855e-08
9.77466e-09
8.14332e-09
6.61057e-09
5.19394e-09
3.91014e-09
2.77664e-09
1.81435e-09
1.04938e-09
5.06829e-10
1.88295e-10
4.78857e-11
6.81419e-12
3.42811e-13
1.99569e-15
3.97121e-09
4.48685e-09
5.2039e-09
6.03921e-09
6.92186e-09
7.80087e-09
8.64371e-09
9.43143e-09
1.01537e-08
1.08049e-08
1.13822e-08
1.18841e-08
1.23098e-08
1.2659e-08
1.29317e-08
1.31282e-08
1.32488e-08
1.32943e-08
1.32657e-08
1.31642e-08
1.29915e-08
1.27497e-08
1.24414e-08
1.20696e-08
1.1638e-08
1.11506e-08
1.06124e-08
1.00288e-08
9.4058e-09
8.75e-09
8.06861e-09
7.36927e-09
6.66005e-09
5.94929e-09
5.24551e-09
4.55732e-09
3.89305e-09
3.26069e-09
2.66767e-09
2.12058e-09
1.6251e-09
1.18611e-09
8.08196e-10
4.96915e-10
2.60116e-10
1.05495e-10
2.8803e-11
4.25805e-12
2.16756e-13
1.26359e-15
1.02659e-09
1.25586e-09
1.53403e-09
1.83902e-09
2.14767e-09
2.44545e-09
2.72477e-09
2.98208e-09
3.21586e-09
3.42546e-09
3.61061e-09
3.77123e-09
3.90731e-09
4.01887e-09
4.10599e-09
4.1688e-09
4.20749e-09
4.22227e-09
4.21348e-09
4.18155e-09
4.12701e-09
4.05054e-09
3.95297e-09
3.83526e-09
3.69858e-09
3.54426e-09
3.37384e-09
3.18904e-09
2.99179e-09
2.78419e-09
2.56854e-09
2.34725e-09
2.12291e-09
1.89817e-09
1.67575e-09
1.45837e-09
1.24872e-09
1.04936e-09
8.62671e-10
6.90778e-10
5.35476e-10
3.98169e-10
2.7986e-10
1.81242e-10
1.031e-10
4.6995e-11
1.45421e-11
2.34163e-12
1.22794e-13
7.18225e-16
1.84177e-10
2.5602e-10
3.33184e-10
4.12403e-10
4.88982e-10
5.60713e-10
6.26829e-10
6.87136e-10
7.41624e-10
7.90323e-10
8.33268e-10
8.70485e-10
9.01997e-10
9.27826e-10
9.47999e-10
9.62548e-10
9.71522e-10
9.74974e-10
9.7298e-10
9.65643e-10
9.53089e-10
9.35474e-10
9.1299e-10
8.85862e-10
8.54359e-10
8.18791e-10
7.79512e-10
7.36923e-10
6.91469e-10
6.43636e-10
5.93952e-10
5.42978e-10
4.91309e-10
4.3956e-10
3.88353e-10
3.38323e-10
2.90088e-10
2.44242e-10
2.0134e-10
1.61878e-10
1.26282e-10
9.4887e-11
6.79219e-11
4.54944e-11
2.75912e-11
1.41474e-11
5.25286e-12
1.01926e-12
5.84506e-14
3.45911e-16
1.88464e-11
3.13163e-11
4.35128e-11
5.52025e-11
6.60458e-11
7.59909e-11
8.50664e-11
9.33055e-11
1.00733e-10
1.07363e-10
1.13205e-10
1.18267e-10
1.22552e-10
1.26064e-10
1.28806e-10
1.30784e-10
1.32004e-10
1.32474e-10
1.32204e-10
1.31208e-10
1.29503e-10
1.27112e-10
1.24059e-10
1.20375e-10
1.16098e-10
1.11269e-10
1.05937e-10
1.00157e-10
9.39873e-11
8.74959e-11
8.0754e-11
7.38379e-11
6.68282e-11
5.98084e-11
5.28634e-11
4.60787e-11
3.95383e-11
3.3323e-11
2.7508e-11
2.2161e-11
1.73404e-11
1.30926e-11
9.45056e-12
6.43098e-12
4.03209e-12
2.23077e-12
9.85125e-13
2.61575e-13
1.98909e-14
1.24894e-16