/*--------------------------------*- C++ -*----------------------------------*\
| =========                 |                                                 |
| \\      /  F ield         | foam-extend: Open Source CFD                    |
|  \\    /   O peration     | Version:     4.0                                |
|   \\  /    A nd           | Web:         http://www.foam-extend.org         |
|    \\/     M anipulation  |                                                 |
\*---------------------------------------------------------------------------*/
FoamFile
{
    version     2.0;
    format      ascii;
    class       volScalarField;
    location    "0.0019";
    object      omega;
}
// * * * * * * * * * * * * * * * * * * * * * * * * * * * * * * * * * * * * * //

dimensions      [0 0 -1 0 0 0 0];

internalField   nonuniform List<scalar> 
28770
(
1.87595e+07
1.87595e+07
1.87595e+07
1.87595e+07
1.87595e+07
1.87595e+07
1.87595e+07
1.87595e+07
1.87595e+07
1.87595e+07
1.87595e+07
1.87595e+07
1.87595e+07
1.87595e+07
1.87595e+07
1.87595e+07
1.87595e+07
1.87595e+07
1.87595e+07
1.87595e+07
1.87595e+07
1.87595e+07
1.87595e+07
1.87595e+07
1.87595e+07
1.87595e+07
1.87595e+07
1.87595e+07
1.87595e+07
1.87595e+07
1.87595e+07
1.87595e+07
1.87595e+07
1.87595e+07
1.87595e+07
1.87595e+07
1.87595e+07
1.87595e+07
1.87595e+07
1.87595e+07
1.87595e+07
1.87595e+07
1.87595e+07
1.87595e+07
1.87595e+07
1.87595e+07
1.87595e+07
1.87595e+07
1.87595e+07
1.87595e+07
2.70002e+06
3.18572e+06
3.23008e+06
3.23475e+06
3.23538e+06
3.23549e+06
3.23552e+06
3.23553e+06
3.23554e+06
3.23554e+06
3.23554e+06
3.23554e+06
3.23554e+06
3.23554e+06
3.23554e+06
3.23554e+06
3.23554e+06
3.23554e+06
3.23554e+06
3.23555e+06
3.23555e+06
3.23555e+06
3.23555e+06
3.23555e+06
3.23555e+06
3.23555e+06
3.23555e+06
3.23556e+06
3.23556e+06
3.23556e+06
3.23556e+06
3.23557e+06
3.23557e+06
3.23557e+06
3.23558e+06
3.23558e+06
3.23558e+06
3.23559e+06
3.2356e+06
3.23561e+06
3.23562e+06
3.23565e+06
3.23572e+06
3.2359e+06
3.23648e+06
3.23896e+06
3.25311e+06
3.36215e+06
4.4313e+06
1.79872e+07
679333
1.01711e+06
1.08473e+06
1.09848e+06
1.10156e+06
1.10235e+06
1.10259e+06
1.10267e+06
1.1027e+06
1.10272e+06
1.10272e+06
1.10273e+06
1.10273e+06
1.10273e+06
1.10273e+06
1.10273e+06
1.10273e+06
1.10273e+06
1.10273e+06
1.10273e+06
1.10273e+06
1.10274e+06
1.10274e+06
1.10274e+06
1.10274e+06
1.10274e+06
1.10274e+06
1.10274e+06
1.10274e+06
1.10274e+06
1.10274e+06
1.10275e+06
1.10275e+06
1.10275e+06
1.10276e+06
1.10277e+06
1.10278e+06
1.10279e+06
1.10283e+06
1.10288e+06
1.10299e+06
1.10324e+06
1.10381e+06
1.10533e+06
1.10992e+06
1.12605e+06
1.19193e+06
1.50336e+06
3.24975e+06
1.79872e+07
228562
430977
496262
516075
522230
524266
524997
525284
525407
525464
525492
525507
525515
525520
525523
525525
525527
525528
525529
525529
525530
525531
525532
525533
525534
525535
525536
525538
525541
525544
525548
525554
525562
525573
525590
525616
525659
525731
525856
526087
526539
527477
529578
534676
548189
587443
712736
1.16001e+06
3.12318e+06
1.79872e+07
96081
214047
266500
287520
295773
299080
300462
301070
301354
301494
301566
301606
301629
301642
301651
301656
301660
301663
301665
301666
301668
301669
301671
301673
301675
301677
301681
301685
301690
301698
301708
301722
301743
301774
301821
301894
302011
302207
302544
303149
304289
306543
311251
321677
346217
407822
574725
1.08476e+06
3.10621e+06
1.79872e+07
47892.4
118580
157740
176957
185965
190161
192147
193115
193605
193862
194002
194082
194128
194157
194175
194187
194195
194200
194205
194208
194211
194214
194217
194221
194225
194230
194237
194246
194257
194273
194296
194327
194373
194440
194542
194699
194949
195357
196043
197237
199393
203438
211347
227494
262028
340001
530298
1.06583e+06
3.10319e+06
1.79872e+07
27067.5
71362.9
99947.2
116248
125012
129619
132039
133327
134027
134417
134641
134773
134853
134904
134936
134957
134972
134983
134991
134998
135003
135009
135015
135021
135029
135038
135051
135067
135089
135119
135161
135220
135306
135430
135617
135901
136344
137051
138210
140159
143534
149562
160675
181884
224021
312385
514656
1.06034e+06
3.10247e+06
1.79872e+07
16745.6
45807.2
66727.8
80063.4
88044.6
92671.7
95323.4
96845.6
97728.7
98249.1
98561.9
98754
98874.6
98952.2
99003.3
99037.9
99062.2
99079.8
99093.3
99104.3
99114
99123.4
99133.2
99144.2
99157.4
99173.9
99195
99222.9
99260.2
99311
99381.3
99480
99620.8
99824.7
100125
100576
101265
102340
104052
106840
111487
119424
133348
158531
205906
300417
508647
1.0585e+06
3.10225e+06
1.79872e+07
11082.5
31034.7
46486.9
57218.4
64212.6
68606.3
71315.4
72975.8
73996.1
74628.5
75025.5
75278.5
75442.7
75551.2
75624.4
75675.1
75711.2
75737.9
75758.6
75775.6
75790.8
75805.5
75820.9
75838.4
75859.2
75885.1
75918.3
75961.7
76019.7
76098.2
76206
76356
76567.6
76870.3
77309.9
77958.2
78929.8
80410.6
82707.5
86336
92179.8
101790
117975
146056
196848
294900
506125
1.0578e+06
3.10217e+06
1.79872e+07
7719
21947.5
33545.1
42149.8
48151.9
52178.9
54819.9
56532.6
57639.9
58358.2
58827.4
59137.3
59344.6
59485.5
59582.9
59651.7
59701.7
59739.2
59768.8
59793.5
59815.7
59837.3
59860.2
59885.9
59916.7
59954.8
60003.4
60066.8
60150.8
60263.7
60417.4
60629.1
60924.4
61341.4
61937.9
62802.5
64073.2
65967.8
68834.8
73241.8
80131
91107.3
109005
139104
192067
292157
504944
1.05749e+06
3.10213e+06
1.79872e+07
5595.54
16070.6
24920.8
31854.7
36955
40566.5
43061.3
44760
45908.6
46684.6
47210.5
47569.4
47816.7
47989.2
48111.3
48199.5
48264.7
48314.6
48354.5
48388.3
48419
48449.2
48481.1
48517.2
48560.2
48613.2
48680.6
48767.9
48882.8
49036
49242.6
49524.3
49912.6
50453.5
51215.8
52302.3
53869.7
56159.1
59547
64630.8
72379.4
84410.9
103544
134997
189311
290589
504247
1.05728e+06
3.10211e+06
1.79872e+07
4190.95
12119.2
19006.8
24619.9
28935.1
32131.4
34439.3
36078.2
37231.1
38038.8
38604.9
39003.2
39285.2
39486.9
39633.1
39740.8
39822
39885.3
39936.7
39980.9
40021.5
40061.7
40104.4
40152.6
40209.9
40280.5
40369.5
40484.2
40634.1
40832.1
41096.8
41453.8
41940
42608.7
43537.1
44839.3
46685.3
49331.2
53169
58809.2
67225.6
80025.1
99995
132296
187398
289336
503507
1.05693e+06
3.10203e+06
1.79872e+07
3226.66
9373.05
14828.2
19408.1
23060.8
25870.2
27976.4
29527.8
30657.7
31475.6
32066.4
32493.8
32804.5
33032
33200.4
33327.1
33424.5
33501.7
33565.4
33621
33672.6
33724.1
33779
33841.1
33914.6
34004.7
34117.8
34262.6
34450.3
34696.3
35022
35456.6
36041.8
36836.1
37923.7
39426.2
41521.6
44473.7
48680
54752
63654.2
76962.5
97423.5
130141
185528
287609
501888
1.05565e+06
3.10147e+06
1.79872e+07
2544.47
7411.02
11801.4
15571.4
18677
21140.8
23047.6
24497.3
25586
26397.3
26999.8
27446.9
27779.8
28029
28217.4
28361.9
28475.1
28566.3
28642.8
28710.4
28773.9
28837.6
28905.9
28983
29074.2
29185.4
29324.4
29501
29728.2
30023.7
30411.1
30922.9
31604.3
32517.9
33752.2
35433.3
37742.3
40944.7
45435.6
51819.3
61046.1
74626.7
95253.7
127934
182947
284172
497098
1.0496e+06
3.09626e+06
1.79872e+07
2050.04
5977.38
9565.67
12703.9
15356
17517.2
19236.6
20580.2
21616.9
22409.8
23013.4
23472.1
23821.1
24088
24293.7
24454.4
24582.4
24687.3
24776.7
24856.7
24932.6
25009.3
25091.6
25184.8
25294.5
25427.9
25593.6
25802.8
26070.2
26414.9
26862.9
27449
28220.9
29244
30609.3
32444.1
34929.3
38325.8
43019.1
49599.2
59036.2
72667.4
93145.9
125273
178904
276990
482932
1.0205e+06
3.04087e+06
1.79872e+07
1684.77
4910.82
7887.58
10530.9
12808.4
14709.4
16258.2
17498.1
18477.7
19244.7
19841.7
20305.2
20665.2
20945.7
21165.9
21341
21482.8
21600.8
21702.8
21795.1
21883.6
21973.6
22070.5
22180
22308.8
22464.6
22657.3
22899
23205.7
23598.2
24103.9
24759.5
25614.3
26735.4
28214.2
30177.8
32803.7
36344.2
41163.3
47790.8
54449.1
67519.7
85757
113788
159309
239310
397205
770852
2.00887e+06
1.20425e+07
1410.92
4106.13
6611.95
8864.54
10833.7
12514.9
13912.8
15055.3
15977.2
16714.1
17299.3
17762.5
18129
18419.7
18651.8
18839.3
18993.6
19123.8
19237.8
19342.2
19443.1
19546.3
19657.7
19783.6
19931.3
20109.4
20328.4
20601.6
20946
21383.5
21942.9
22661.9
23590.8
24797.2
26372.5
28441.7
31178.6
34828.2
39744.3
46453.2
53152.7
66011.7
83941
111249
155225
231978
383206
746999
2.01428e+06
1.24056e+07
1203.41
3492.85
5633.57
7577.25
9297.75
10791.3
12057.3
13111.3
13977.7
14683
15253.3
15712.6
16082.2
16380.1
16621.7
16819.8
16985
17126.4
17251.6
17367.5
17480.4
17596.5
17722
17863.8
18029.8
18229.2
18473.3
18776.2
19155.8
19634.8
20242.8
21018.2
22011.9
23291.2
24946.5
27100.6
29922.9
33651.7
38630.2
45368.5
52084.7
64721.5
82348.2
109026
151794
226404
373580
730622
1.98883e+06
1.23851e+07
1045.18
3022.7
4879.47
6578.96
8099.26
9434.68
10587.7
11563.4
12378.5
13052.8
13606.9
14060.2
14430.3
14733.1
14982.1
15188.9
15363.7
15515
15650.4
15777
15901.1
16029.3
16168.1
16324.9
16508.1
16727.5
16994.9
17325.1
17736.6
18252.9
18903.9
19728.5
20777.5
22117.6
23837.9
26058.5
28944.7
32727.9
37741.4
44479.8
51189
63615
80957
107068
148641
233616
388246
766363
2.12091e+06
1.69428e+07
924.386
2662
4298.24
5805.53
7165.7
8371.84
9427.9
10335.9
11105.2
11750.8
12288.6
12734.7
13103.8
13409.6
13664.1
13878.1
14061
14220.9
14365.5
14501.7
14636
14775.2
14926.3
15096.9
15295.8
15533.2
15821.6
16176.3
16616
17164.8
17853
18719.4
19814.5
21204.3
22976.1
25247.5
28179.5
31997.3
37025
43743.7
50427.8
62656.2
79736.7
105371
146085
229148
379504
745789
2.07414e+06
1.69162e+07
832.661
2386.86
3853.17
5210.72
6444.47
7547.66
8521.63
9372.09
10102.2
10722.3
11245.1
11683.7
12050.9
12358.3
12617
12836.7
13026.3
13193.6
13346
13490.6
13633.9
13782.9
13944.8
14127.5
14340.3
14593.6
14900.3
15276.1
15740.1
16316.5
17035.8
17936.8
19069.3
20498.5
22310.1
24619
27582.1
31419
36445.2
43129.5
49774
61811
78640.4
103852
143869
225583
373923
737715
2.06684e+06
1.69155e+07
764.066
2180.29
3517.92
4761.1
5897.26
6920.11
7829.41
8630.88
9328.17
9926.71
10436.4
10868.3
11233.1
11541.4
11803.1
12027.2
12222.1
12395.4
12554.4
12706
12856.9
13014.2
13185.3
13378.3
13602.8
13869.5
14191.5
14584.8
15068.8
15667.9
16412.3
17340.9
18502.9
19962.4
21803.6
24139
27121.7
30966
35979.4
42618.4
49212.8
61051.7
77612.6
102371
141630
221707
367205
723748
2.02441e+06
1.67945e+07
714.393
2030.19
3273.68
4432.61
5496.3
6458.94
7319.65
8081.9
8752.43
9334.08
9833.36
10259.5
10622.2
10930.9
11194.7
11422
11621
11799
11963.1
12120.2
12277.2
12441.1
12619.6
12820.9
13054.6
13332
13666.2
14073.3
14573
15189.5
15953.4
16902.9
18086.9
19568.7
21431
23784.1
26778
30621.9
35615.7
42203.8
48745.9
60369.8
76626.8
100833
139067
216545
356815
696585
2.07527e+06
1.19258e+07
680.717
1928.13
3107.29
4208.35
5221.95
6142.69
6969.38
7704.53
8353.69
8922.77
9414.76
9836.84
10197.9
10506.6
10771.8
11001.4
11203.3
11384.6
11552.5
11713.6
11875
12043.8
12227.6
12434.9
12675.5
12960.5
13303.5
13720.6
14231.5
14860.6
15638.2
16602.4
17801.7
19298.7
21174.9
23538.9
26538.2
30377.8
35351.1
41891
48391.8
59789.1
75722.7
99285
136171
209774
341283
658604
1.98773e+06
1.18218e+07
660.912
1867.96
3009.02
4075.7
5059.41
5955.03
6761.24
7480.07
8116.27
8676.31
9163.99
9583.76
9943.76
10252.6
10518.5
10749.5
10953.1
11136.5
11306.6
11470.3
11634.4
11806.1
11993.2
12204.3
12449.1
12738.9
13087.3
13510.5
14028.3
14665
15450.9
16424
17632.4
19138.3
21022.5
23392.4
26393.8
30228.9
35186.3
41690.6
48176.3
59362.7
75014.9
97969.7
133434
202498
320390
583961
1.29132e+06
5.5113e+06
654.427
1848.14
2976.59
4031.85
5005.61
5892.85
6692.2
7405.56
8037.42
8594.01
9080.28
9499.39
9859.08
10167.9
10434.1
10665.6
10869.8
11053.8
11224.7
11389.2
11554.2
11727
11915.2
12127.5
12373.7
12665.2
13015.4
13440.7
13960.8
14600
15388.7
16364.7
17576.3
19085.1
20971.9
23343.6
26345.5
30178.7
35130.1
41621.1
48132.1
59159.5
74663.6
97281.2
131895
198500
306982
524156
966370
1.97539e+06
661.1
1868.23
3009.3
4075.96
5059.64
5955.22
6761.38
7480.17
8116.33
8676.32
9164.01
9583.79
9943.8
10252.6
10518.6
10749.6
10953.2
11136.5
11306.6
11470.3
11634.4
11806.1
11993.2
12204.3
12449
12738.9
13087.3
13510.5
14028.2
14665
15450.9
16423.9
17632.4
19138.3
21022.5
23392.4
26393.8
30228.9
35186.3
41690.6
48266.2
59228.5
74783.9
97519.8
132437
201002
315508
563000
1.22946e+06
4.58218e+06
681.09
1928.66
3107.84
4208.86
5222.39
6143.04
6969.65
7704.71
8353.78
8922.83
9414.83
9836.92
10197.9
10506.7
10771.9
11001.5
11203.3
11384.7
11552.5
11713.6
11875
12043.8
12227.5
12434.9
12675.4
12960.5
13303.5
13720.6
14231.5
14860.5
15638.1
16602.3
17801.7
19298.7
21174.9
23538.9
26538.1
30377.8
35351
41891
48555.7
59553.1
75335.9
98577.7
134731
207912
336368
643605
1.63916e+06
1.17232e+07
714.936
2030.94
3274.46
4433.32
5496.9
6459.41
7320
8082.12
8752.55
9334.19
9833.47
10259.6
10622.3
10931
11194.8
11422.1
11621.1
11799.1
11963.2
12120.3
12277.2
12441.1
12619.5
12820.9
13054.6
13331.9
13666.1
14073.2
14572.9
15189.5
15953.3
16902.8
18086.9
19568.7
21431
23784
26777.9
30621.8
35615.7
42203.8
48969.8
60063.9
76158.8
100049
137643
215001
353522
689247
1.74963e+06
1.19198e+07
764.755
2181.24
3518.88
4761.96
5897.98
6920.66
7829.79
8631.07
9328.32
9926.87
10436.6
10868.4
11233.2
11541.6
11803.2
12027.3
12222.2
12395.5
12554.5
12706
12856.9
13014.2
13185.2
13378.3
13602.7
13869.4
14191.5
14584.7
15068.8
15667.8
16412.2
17340.8
18502.8
19962.3
21803.5
24138.9
27121.7
30966
35979.4
42618.3
49485
60700.3
77113.8
101610
140399
220565
364981
717730
1.99364e+06
1.63315e+07
833.468
2387.96
3854.26
5211.68
6445.25
7548.24
8521.98
9372.33
10102.4
10722.4
11245.2
11683.9
12051
12358.5
12617.2
12836.8
13026.3
13193.6
13346.1
13490.6
13633.9
13782.9
13944.8
14127.5
14340.2
14593.5
14900.3
15276
15740
16316.4
17035.7
17936.6
19069.2
20498.4
22310
24618.9
27582
31419
36445.2
43129.5
50091.4
61421.7
78120.7
103115
142776
224693
372501
735359
2.06314e+06
1.69144e+07
925.283
2663.19
4299.4
5806.53
7166.48
8372.39
9428.26
10336.1
11105.4
11751
12288.8
12734.8
13103.9
13409.7
13664.2
13878.2
14061
14221
14365.6
14501.7
14636
14775.2
14926.2
15096.8
15295.7
15533.1
15821.6
16176.2
16615.9
17164.7
17852.8
18719.3
19814.4
21204.2
22976
25247.4
28179.4
31997.2
37025
43743.7
50795.9
62221.3
79176.7
104598
144957
228217
377980
743452
2.07206e+06
1.69161e+07
1046.14
3023.94
4880.65
6579.95
8100
9435.11
10588
11563.7
12378.7
13053
13607.1
14060.3
14430.5
14733.2
14982.2
15189
15363.7
15515
15650.5
15777
15901.1
16029.2
16168.1
16324.9
16508.1
16727.4
16994.8
17325
17736.5
18252.8
18903.8
19728.4
20777.4
22117.5
23837.8
26058.5
28944.6
32727.9
37741.4
44479.8
51620
63119.2
80327.9
106190
147300
232369
385570
758727
2.09668e+06
1.69197e+07
1204.39
3494.09
5634.72
7578.18
9298.41
10791.8
12057.7
13111.6
13977.9
14683.2
15253.5
15712.8
16082.3
16380.2
16621.8
16819.9
16985.1
17126.4
17251.6
17367.5
17480.4
17596.5
17721.9
17863.7
18029.7
18229.1
18473.2
18776.1
19155.7
19634.7
20242.6
21018.1
22011.8
23291.1
24946.4
27100.5
29922.8
33651.6
38630.1
45368.4
52596
64147.5
81629.3
108016
150201
223877
368220
716058
1.93326e+06
1.21638e+07
1411.89
4107.33
6613.03
8865.37
10834.2
12515.3
13913.1
15055.6
15977.4
16714.3
17299.5
17762.6
18129.1
18419.8
18651.9
18839.4
18993.6
19123.8
19237.8
19342.2
19443.1
19546.3
19657.7
19783.6
19931.3
20109.3
20328.3
20601.5
20945.9
21383.4
21942.8
22661.8
23590.7
24797.1
26372.4
28441.6
31178.5
34828.2
39744.2
46453.2
53768.6
65341.2
83117.5
110100
153450
229073
378372
739915
2.0077e+06
1.24058e+07
1685.7
4911.93
7888.54
10531.6
12808.8
14709.7
16258.5
17498.3
18477.9
19244.9
19841.9
20305.3
20665.3
20945.8
21166
21341.1
21482.9
21600.9
21702.8
21795.1
21883.6
21973.6
22070.4
22180
22308.7
22464.6
22657.2
22898.9
23205.6
23598.1
24103.8
24759.4
25614.2
26735.3
28214.1
30177.7
32803.6
36344.1
41163.3
47790.8
55225.3
66737.3
84821.6
112480
157173
235334
389113
755705
2.01693e+06
1.23779e+07
2050.91
5978.38
9566.48
12704.4
15356.3
17517.5
19236.8
20580.4
21617
22409.9
23013.5
23472.2
23821.2
24088
24293.7
24454.4
24582.5
24687.4
24776.7
24856.7
24932.6
25009.3
25091.6
25184.7
25294.5
25427.8
25593.5
25802.8
26070.1
26414.8
26862.8
27448.9
28220.8
29243.9
30609.2
32444
34929.2
38325.8
43019
49599.2
59036.2
72667.4
93145.9
125273
178904
276990
482932
1.0205e+06
3.04087e+06
1.79872e+07
2545.25
7411.87
11802.1
15571.8
18677.2
21141
23047.8
24497.4
25586.1
26397.4
26999.8
27447
27779.8
28029.1
28217.5
28362
28475.1
28566.3
28642.8
28710.4
28773.9
28837.6
28905.9
28983
29074.1
29185.4
29324.3
29500.9
29728.2
30023.6
30411
30922.9
31604.2
32517.8
33752.2
35433.2
37742.3
40944.6
45435.5
51819.3
61046.1
74626.7
95253.7
127934
182947
284172
497098
1.0496e+06
3.09626e+06
1.79872e+07
3227.34
9373.74
14828.7
19408.4
23060.9
25870.3
27976.5
29527.8
30657.7
31475.6
32066.4
32493.9
32804.5
33032
33200.4
33327.1
33424.5
33501.7
33565.4
33621
33672.6
33724.1
33779
33841
33914.5
34004.6
34117.8
34262.5
34450.2
34696.3
35021.9
35456.6
36041.7
36836.1
37923.7
39426.2
41521.5
44473.6
48680
54752
63654.1
76962.5
97423.5
130141
185528
287609
501888
1.05565e+06
3.10147e+06
1.79872e+07
4191.5
12119.7
19007.1
24620
28935.1
32131.5
34439.3
36078.2
37231.1
38038.8
38604.9
39003.2
39285.2
39486.9
39633.1
39740.8
39822
39885.3
39936.7
39980.9
40021.5
40061.7
40104.4
40152.6
40209.9
40280.4
40369.5
40484.2
40634
40832.1
41096.8
41453.8
41940
42608.6
43537
44839.3
46685.3
49331.2
53169
58809.2
67225.6
80025.1
99995
132296
187398
289336
503507
1.05693e+06
3.10203e+06
1.79872e+07
5595.96
16070.9
24920.9
31854.7
36955
40566.4
43061.3
44759.9
45908.6
46684.6
47210.5
47569.4
47816.7
47989.2
48111.3
48199.5
48264.7
48314.6
48354.5
48388.3
48419
48449.2
48481.1
48517.2
48560.2
48613.2
48680.6
48767.9
48882.8
49036
49242.6
49524.3
49912.5
50453.5
51215.8
52302.3
53869.7
56159.1
59547
64630.8
72379.4
84410.9
103544
134997
189311
290589
504247
1.05728e+06
3.10211e+06
1.79872e+07
7719.25
21947.5
33545
42149.6
48151.7
52178.8
54819.8
56532.5
57639.9
58358.1
58827.4
59137.3
59344.6
59485.5
59582.9
59651.7
59701.7
59739.2
59768.8
59793.5
59815.7
59837.3
59860.1
59885.9
59916.7
59954.7
60003.4
60066.8
60150.8
60263.7
60417.4
60629.1
60924.4
61341.4
61937.9
62802.5
64073.2
65967.8
68834.8
73241.8
80131
91107.3
109005
139104
192067
292157
504944
1.05749e+06
3.10213e+06
1.79872e+07
11082.5
31034.2
46486.5
57218
64212.4
68606.1
71315.3
72975.7
73996
74628.5
75025.4
75278.5
75442.6
75551.1
75624.4
75675.1
75711.2
75737.9
75758.5
75775.6
75790.8
75805.5
75820.9
75838.4
75859.2
75885.1
75918.3
75961.7
76019.7
76098.2
76206
76356
76567.6
76870.3
77309.9
77958.2
78929.8
80410.6
82707.5
86336
92179.8
101790
117975
146056
196848
294900
506125
1.0578e+06
3.10217e+06
1.79872e+07
16745.3
45805.8
66726.9
80062.9
88044.3
92671.5
95323.3
96845.6
97728.6
98249.1
98561.9
98754
98874.6
98952.1
99003.3
99037.9
99062.2
99079.8
99093.3
99104.3
99114
99123.4
99133.2
99144.2
99157.4
99173.9
99195
99222.9
99260.2
99311
99381.3
99480
99620.8
99824.7
100125
100576
101265
102340
104052
106840
111487
119424
133348
158531
205906
300417
508647
1.0585e+06
3.10225e+06
1.79872e+07
27066.7
71358.9
99945.7
116247
125012
129618
132039
133326
134026
134417
134641
134773
134853
134904
134936
134957
134972
134983
134991
134997
135003
135009
135015
135021
135029
135038
135051
135067
135089
135119
135161
135221
135306
135430
135617
135901
136344
137051
138210
140159
143534
149562
160675
181884
224021
312385
514656
1.06034e+06
3.10247e+06
1.79872e+07
47892
118579
157739
176957
185965
190161
192147
193115
193605
193862
194002
194082
194128
194157
194175
194187
194195
194200
194205
194208
194211
194214
194217
194221
194225
194230
194237
194246
194257
194273
194296
194327
194373
194440
194542
194699
194949
195357
196043
197237
199393
203438
211347
227494
262028
340001
530298
1.06583e+06
3.10319e+06
1.79872e+07
96080.8
214046
266499
287520
295773
299080
300462
301070
301354
301494
301566
301606
301629
301642
301651
301656
301660
301663
301665
301666
301668
301669
301671
301673
301675
301677
301681
301685
301690
301698
301708
301722
301743
301774
301821
301894
302011
302207
302544
303149
304289
306543
311251
321677
346217
407822
574725
1.08476e+06
3.10621e+06
1.79872e+07
228562
430977
496261
516075
522230
524266
524997
525284
525407
525464
525492
525507
525515
525520
525523
525525
525527
525528
525529
525529
525530
525531
525532
525533
525534
525535
525536
525538
525541
525544
525548
525554
525562
525573
525590
525616
525659
525731
525856
526087
526539
527477
529578
534676
548189
587443
712736
1.16001e+06
3.12318e+06
1.79872e+07
679333
1.01711e+06
1.08473e+06
1.09848e+06
1.10156e+06
1.10235e+06
1.10259e+06
1.10267e+06
1.1027e+06
1.10272e+06
1.10272e+06
1.10273e+06
1.10273e+06
1.10273e+06
1.10273e+06
1.10273e+06
1.10273e+06
1.10273e+06
1.10273e+06
1.10273e+06
1.10273e+06
1.10274e+06
1.10274e+06
1.10274e+06
1.10274e+06
1.10274e+06
1.10274e+06
1.10274e+06
1.10274e+06
1.10274e+06
1.10274e+06
1.10275e+06
1.10275e+06
1.10275e+06
1.10276e+06
1.10277e+06
1.10278e+06
1.10279e+06
1.10283e+06
1.10288e+06
1.10299e+06
1.10324e+06
1.10381e+06
1.10533e+06
1.10992e+06
1.12605e+06
1.19193e+06
1.50336e+06
3.24975e+06
1.79872e+07
2.70002e+06
3.18572e+06
3.23008e+06
3.23475e+06
3.23538e+06
3.23549e+06
3.23552e+06
3.23553e+06
3.23554e+06
3.23554e+06
3.23554e+06
3.23554e+06
3.23554e+06
3.23554e+06
3.23554e+06
3.23554e+06
3.23554e+06
3.23554e+06
3.23554e+06
3.23555e+06
3.23555e+06
3.23555e+06
3.23555e+06
3.23555e+06
3.23555e+06
3.23555e+06
3.23555e+06
3.23556e+06
3.23556e+06
3.23556e+06
3.23556e+06
3.23557e+06
3.23557e+06
3.23557e+06
3.23558e+06
3.23558e+06
3.23558e+06
3.23559e+06
3.2356e+06
3.23561e+06
3.23562e+06
3.23565e+06
3.23572e+06
3.2359e+06
3.23648e+06
3.23896e+06
3.25311e+06
3.36215e+06
4.4313e+06
1.79872e+07
1.87595e+07
1.87595e+07
1.87595e+07
1.87595e+07
1.87595e+07
1.87595e+07
1.87595e+07
1.87595e+07
1.87595e+07
1.87595e+07
1.87595e+07
1.87595e+07
1.87595e+07
1.87595e+07
1.87595e+07
1.87595e+07
1.87595e+07
1.87595e+07
1.87595e+07
1.87595e+07
1.87595e+07
1.87595e+07
1.87595e+07
1.87595e+07
1.87595e+07
1.87595e+07
1.87595e+07
1.87595e+07
1.87595e+07
1.87595e+07
1.87595e+07
1.87595e+07
1.87595e+07
1.87595e+07
1.87595e+07
1.87595e+07
1.87595e+07
1.87595e+07
1.87595e+07
1.87595e+07
1.87595e+07
1.87595e+07
1.87595e+07
1.87595e+07
1.87595e+07
1.87595e+07
1.87595e+07
1.87595e+07
1.87595e+07
1.87595e+07
6.64503e+07
6.76664e+07
6.76662e+07
6.76774e+07
6.77431e+07
6.76596e+07
6.76654e+07
6.76658e+07
6.7666e+07
6.7666e+07
6.7666e+07
6.7666e+07
6.7666e+07
6.76661e+07
6.7666e+07
6.7666e+07
6.7666e+07
6.7666e+07
6.7666e+07
6.76636e+07
3.10456e+06
3.31601e+06
3.32412e+06
3.32533e+06
3.32462e+06
3.30791e+06
3.3041e+06
3.32045e+06
3.32445e+06
3.32455e+06
3.32456e+06
3.32456e+06
3.32456e+06
3.32456e+06
3.32456e+06
3.32456e+06
3.32455e+06
3.32449e+06
3.3223e+06
3.25299e+06
1.1573e+07
1.19501e+07
1.19517e+07
1.19515e+07
1.19514e+07
1.19399e+07
1.1943e+07
1.19515e+07
1.19517e+07
1.19517e+07
1.19517e+07
1.19517e+07
1.19517e+07
1.19517e+07
1.19517e+07
1.19517e+07
1.19517e+07
1.19517e+07
1.19512e+07
1.19092e+07
1.87595e+07
1.87595e+07
1.87595e+07
1.87595e+07
1.87595e+07
1.87595e+07
1.87595e+07
1.87595e+07
1.87595e+07
1.87595e+07
1.87595e+07
1.87595e+07
1.87595e+07
1.87595e+07
1.87595e+07
1.87595e+07
1.87595e+07
1.87595e+07
1.87595e+07
1.87595e+07
1.87595e+07
1.87595e+07
1.87595e+07
1.87595e+07
1.87595e+07
1.87595e+07
1.87595e+07
1.87595e+07
1.87595e+07
1.87595e+07
1.87595e+07
1.87595e+07
1.87595e+07
1.87595e+07
1.87595e+07
1.87595e+07
1.87595e+07
1.87595e+07
1.87595e+07
1.87595e+07
1.87595e+07
1.87595e+07
1.87595e+07
1.87595e+07
1.87595e+07
1.87595e+07
1.87595e+07
1.87595e+07
1.87595e+07
1.87595e+07
1.87595e+07
1.87595e+07
1.87595e+07
1.87595e+07
1.87595e+07
1.87595e+07
1.87595e+07
1.87595e+07
1.87595e+07
1.87595e+07
1.87595e+07
1.87595e+07
1.87595e+07
1.87595e+07
1.87595e+07
1.87595e+07
1.87595e+07
1.87595e+07
1.87595e+07
1.87595e+07
1.87595e+07
1.87595e+07
1.87595e+07
1.87595e+07
1.87595e+07
1.87595e+07
1.87595e+07
1.87595e+07
1.87595e+07
1.87595e+07
1.87595e+07
1.87595e+07
1.87595e+07
1.87595e+07
1.87595e+07
1.87595e+07
1.87595e+07
1.87595e+07
1.87595e+07
1.87595e+07
1.87595e+07
1.87595e+07
1.87595e+07
1.87595e+07
1.87595e+07
1.87595e+07
1.87595e+07
1.87595e+07
1.87595e+07
1.87595e+07
1.79872e+07
4.4313e+06
3.36207e+06
3.25301e+06
3.23887e+06
3.23639e+06
3.23581e+06
3.23563e+06
3.23557e+06
3.23555e+06
3.23554e+06
3.23553e+06
3.23553e+06
3.23553e+06
3.23553e+06
3.23553e+06
3.23553e+06
3.23553e+06
3.23553e+06
3.23553e+06
3.23553e+06
3.23553e+06
3.23553e+06
3.23553e+06
3.23554e+06
3.23554e+06
3.23554e+06
3.23554e+06
3.23554e+06
3.23554e+06
3.23554e+06
3.23554e+06
3.23554e+06
3.23554e+06
3.23554e+06
3.23554e+06
3.23554e+06
3.23554e+06
3.23554e+06
3.23554e+06
3.23554e+06
3.23554e+06
3.23554e+06
3.23554e+06
3.23554e+06
3.23554e+06
3.23554e+06
3.23554e+06
3.23554e+06
3.23554e+06
3.23554e+06
3.23554e+06
3.23554e+06
3.23554e+06
3.23554e+06
3.23554e+06
3.23554e+06
3.23554e+06
3.23554e+06
3.23554e+06
3.23554e+06
3.23554e+06
3.23554e+06
3.23554e+06
3.23554e+06
3.23554e+06
3.23554e+06
3.23554e+06
3.23554e+06
3.23554e+06
3.23554e+06
3.23554e+06
3.23554e+06
3.23554e+06
3.23554e+06
3.23554e+06
3.23554e+06
3.23554e+06
3.23554e+06
3.23554e+06
3.23554e+06
3.23554e+06
3.23554e+06
3.23554e+06
3.23554e+06
3.23554e+06
3.23554e+06
3.23554e+06
3.23554e+06
3.23554e+06
3.23554e+06
3.23554e+06
3.23554e+06
3.23554e+06
3.23554e+06
3.23554e+06
3.23554e+06
3.23554e+06
3.23554e+06
3.23554e+06
1.79872e+07
3.24983e+06
1.50336e+06
1.19189e+06
1.126e+06
1.10986e+06
1.10527e+06
1.10375e+06
1.10318e+06
1.10295e+06
1.10284e+06
1.10278e+06
1.10276e+06
1.10274e+06
1.10273e+06
1.10273e+06
1.10273e+06
1.10273e+06
1.10273e+06
1.10272e+06
1.10273e+06
1.10273e+06
1.10273e+06
1.10273e+06
1.10273e+06
1.10273e+06
1.10273e+06
1.10273e+06
1.10273e+06
1.10273e+06
1.10273e+06
1.10273e+06
1.10273e+06
1.10273e+06
1.10273e+06
1.10273e+06
1.10273e+06
1.10273e+06
1.10273e+06
1.10273e+06
1.10273e+06
1.10273e+06
1.10273e+06
1.10273e+06
1.10273e+06
1.10273e+06
1.10273e+06
1.10273e+06
1.10273e+06
1.10273e+06
1.10273e+06
1.10273e+06
1.10273e+06
1.10273e+06
1.10273e+06
1.10273e+06
1.10273e+06
1.10273e+06
1.10273e+06
1.10273e+06
1.10273e+06
1.10273e+06
1.10273e+06
1.10273e+06
1.10273e+06
1.10273e+06
1.10273e+06
1.10273e+06
1.10273e+06
1.10273e+06
1.10273e+06
1.10273e+06
1.10273e+06
1.10273e+06
1.10273e+06
1.10273e+06
1.10273e+06
1.10273e+06
1.10273e+06
1.10273e+06
1.10273e+06
1.10273e+06
1.10273e+06
1.10273e+06
1.10273e+06
1.10273e+06
1.10273e+06
1.10273e+06
1.10273e+06
1.10273e+06
1.10273e+06
1.10273e+06
1.10273e+06
1.10273e+06
1.10273e+06
1.10273e+06
1.10273e+06
1.10273e+06
1.10273e+06
1.10273e+06
1.79872e+07
3.12328e+06
1.16005e+06
712737
587419
548152
534633
529532
527432
526495
526046
525817
525695
525626
525586
525563
525548
525539
525534
525530
525528
525527
525526
525526
525525
525525
525525
525525
525525
525526
525526
525526
525526
525526
525526
525526
525526
525526
525526
525527
525527
525527
525527
525527
525527
525527
525527
525527
525527
525527
525527
525527
525527
525527
525527
525527
525527
525527
525527
525527
525527
525527
525527
525527
525527
525527
525527
525527
525527
525527
525527
525527
525527
525527
525527
525527
525527
525527
525527
525527
525527
525527
525527
525527
525527
525527
525527
525527
525527
525527
525527
525527
525527
525527
525527
525527
525527
525527
525527
525527
1.79872e+07
3.10632e+06
1.08482e+06
574754
407825
346201
321649
311216
306505
304251
303112
302508
302174
301981
301867
301796
301752
301724
301705
301693
301685
301679
301675
301672
301670
301669
301668
301667
301667
301666
301666
301666
301665
301665
301665
301665
301665
301665
301665
301665
301665
301665
301665
301665
301665
301665
301665
301665
301665
301665
301665
301665
301665
301665
301665
301665
301665
301665
301665
301665
301665
301665
301665
301665
301665
301665
301665
301665
301665
301665
301665
301665
301665
301665
301665
301665
301665
301665
301665
301665
301665
301665
301665
301665
301665
301665
301665
301665
301665
301665
301665
301665
301665
301665
301665
301665
301665
301665
301665
301665
1.79872e+07
3.1033e+06
1.0659e+06
530347
340028
262034
227485
211327
203412
199364
197208
196015
195330
194925
194678
194523
194424
194359
194316
194287
194266
194252
194242
194234
194229
194224
194221
194219
194217
194216
194214
194213
194213
194212
194211
194211
194211
194210
194210
194210
194210
194210
194210
194209
194209
194209
194209
194209
194209
194209
194209
194209
194209
194209
194209
194209
194209
194209
194209
194209
194209
194208
194208
194208
194208
194208
194208
194208
194208
194208
194208
194208
194208
194208
194208
194208
194208
194208
194208
194208
194208
194208
194208
194208
194208
194208
194208
194208
194208
194208
194208
194208
194208
194208
194208
194208
194208
194208
194208
194208
1.79872e+07
3.10259e+06
1.06042e+06
514718
312430
224048
181894
160672
149551
143519
140141
138192
137035
136330
135889
135608
135425
135302
135220
135162
135122
135094
135073
135058
135046
135037
135030
135025
135021
135017
135015
135012
135010
135009
135008
135007
135006
135005
135004
135004
135003
135003
135003
135003
135002
135002
135002
135002
135002
135002
135001
135001
135001
135001
135001
135001
135001
135001
135001
135001
135001
135001
135000
135000
135000
135000
135000
135000
135000
135000
135000
135000
135000
135000
135000
135000
135000
135000
135000
135000
135000
135000
135000
135000
135000
135000
135000
135000
135000
135000
135000
135000
135000
135000
135000
135000
135000
135000
135000
135000
1.79872e+07
3.10238e+06
1.05859e+06
508720
300477
205950
158560
133364
119431
111487
106837
104049
102338
101266
100580
100132
99834.9
99634
99495.8
99399.2
99330.5
99280.9
99244.4
99217.1
99196.4
99180.3
99167.8
99157.8
99149.8
99143.4
99138.1
99133.8
99130.2
99127.3
99124.9
99122.8
99121.1
99119.7
99118.5
99117.5
99116.6
99115.9
99115.3
99114.8
99114.3
99113.9
99113.6
99113.4
99113.2
99113
99112.9
99112.7
99112.6
99112.4
99112.3
99112.1
99112
99111.8
99111.7
99111.5
99111.4
99111.3
99111.2
99111.1
99111
99110.9
99110.8
99110.8
99110.7
99110.7
99110.7
99110.6
99110.6
99110.6
99110.6
99110.5
99110.5
99110.5
99110.5
99110.5
99110.5
99110.5
99110.5
99110.5
99110.5
99110.6
99110.6
99110.6
99110.6
99110.6
99110.6
99110.6
99110.6
99110.7
99110.7
99110.7
99110.7
99110.7
99110.7
99110.7
1.79872e+07
3.10231e+06
1.05789e+06
506206