/*--------------------------------*- C++ -*----------------------------------*\
| =========                 |                                                 |
| \\      /  F ield         | foam-extend: Open Source CFD                    |
|  \\    /   O peration     | Version:     4.0                                |
|   \\  /    A nd           | Web:         http://www.foam-extend.org         |
|    \\/     M anipulation  |                                                 |
\*---------------------------------------------------------------------------*/
FoamFile
{
    version     2.0;
    format      ascii;
    class       surfaceScalarField;
    location    "0.0019";
    object      phi;
}
// * * * * * * * * * * * * * * * * * * * * * * * * * * * * * * * * * * * * * //

dimensions      [0 3 -1 0 0 0 0];

internalField   nonuniform List<scalar> 
57362
(
1.1104e-10
6.57769e-15
1.1102e-10
1.99079e-14
1.10986e-10
3.34786e-14
1.10939e-10
4.75812e-14
1.10876e-10
6.2455e-14
1.10798e-10
7.82378e-14
1.10703e-10
9.51933e-14
1.10589e-10
1.13521e-13
1.10456e-10
1.33645e-13
1.103e-10
1.5584e-13
1.10119e-10
1.80342e-13
1.09912e-10
2.07434e-13
1.09674e-10
2.37705e-13
1.09403e-10
2.71454e-13
1.09094e-10
3.09177e-13
1.08742e-10
3.51346e-13
1.08344e-10
3.98659e-13
1.07892e-10
4.5157e-13
1.07381e-10
5.10874e-13
1.06804e-10
5.77127e-13
1.06152e-10
6.51627e-13
1.05418e-10
7.34356e-13
1.04591e-10
8.27406e-13
1.0366e-10
9.30265e-13
1.02615e-10
1.04582e-12
1.01441e-10
1.17261e-12
1.00127e-10
1.3152e-12
9.86555e-11
1.46998e-12
9.70128e-11
1.644e-12
9.51805e-11
1.83053e-12
9.31422e-11
2.04002e-12
9.08789e-11
2.26102e-12
8.83722e-11
2.50889e-12
8.56038e-11
2.76553e-12
8.25544e-11
3.05188e-12
7.92089e-11
3.34238e-12
7.55485e-11
3.663e-12
7.15635e-11
3.98161e-12
6.72397e-11
4.32635e-12
6.25749e-11
4.66156e-12
5.75638e-11
5.01328e-12
5.22142e-11
5.3466e-12
4.65346e-11
5.68142e-12
4.05445e-11
5.98757e-12
3.42687e-11
6.27692e-12
2.77407e-11
6.52616e-12
2.10007e-11
6.74055e-12
1.40952e-11
6.90424e-12
7.07646e-12
7.01866e-12
7.07581e-12
1.11041e-10
1.30887e-14
1.11021e-10
3.95143e-14
1.10988e-10
6.64482e-14
1.10942e-10
9.44188e-14
1.1088e-10
1.23924e-13
1.10803e-10
1.55281e-13
1.10709e-10
1.88934e-13
1.10597e-10
2.25468e-13
1.10466e-10
2.65429e-13
1.10312e-10
3.09392e-13
1.10134e-10
3.57999e-13
1.0993e-10
4.11903e-13
1.09696e-10
4.72041e-13
1.09428e-10
5.39003e-13
1.09123e-10
6.13945e-13
1.08777e-10
6.9781e-13
1.08384e-10
7.91802e-13
1.07938e-10
8.96926e-13
1.07434e-10
1.01494e-12
1.06865e-10
1.14667e-12
1.06222e-10
1.29478e-12
1.05496e-10
1.45937e-12
1.0468e-10
1.64451e-12
1.0376e-10
1.84922e-12
1.02727e-10
2.07942e-12
1.01567e-10
2.33191e-12
1.00267e-10
2.61614e-12
9.88115e-11
2.92465e-12
9.71853e-11
3.27197e-12
9.53702e-11
3.64396e-12
9.33498e-11
4.06287e-12
9.11045e-11
4.50412e-12
8.8616e-11
5.00064e-12
8.58654e-11
5.51356e-12
8.28328e-11
6.08842e-12
7.95026e-11
6.66976e-12
7.58549e-11
7.31525e-12
7.18801e-11
7.95369e-12
6.75618e-11
8.64955e-12
6.28984e-11
9.32272e-12
5.78826e-11
1.0034e-11
5.25225e-11
1.07052e-11
4.68252e-11
1.13832e-11
4.08108e-11
1.20014e-11
3.45037e-11
1.2588e-11
2.79377e-11
1.30925e-11
2.11542e-11
1.35275e-11
1.42003e-11
1.38594e-11
7.1299e-12
1.40917e-11
1.42077e-11
1.11078e-10
1.94032e-14
1.11059e-10
5.8499e-14
1.11027e-10
9.85085e-14
1.10981e-10
1.39963e-13
1.10922e-10
1.83583e-13
1.10847e-10
2.30022e-13
1.10756e-10
2.79949e-13
1.10647e-10
3.34104e-13
1.10519e-10
3.93364e-13
1.1037e-10
4.58474e-13
1.10198e-10
5.30524e-13
1.09999e-10
6.10499e-13
1.09772e-10
6.99582e-13
1.09512e-10
7.98959e-13
1.09215e-10
9.10162e-13
1.08878e-10
1.0346e-12
1.08496e-10
1.17411e-12
1.08063e-10
1.33015e-12
1.07572e-10
1.50542e-12
1.07018e-10
1.7012e-12
1.06391e-10
1.92119e-12
1.05684e-10
2.16595e-12
1.04888e-10
2.4413e-12
1.03991e-10
2.74587e-12
1.02982e-10
3.08873e-12
1.01848e-10
3.46495e-12
1.00576e-10
3.88863e-12
9.91502e-11
4.34897e-12
9.75556e-11
4.86767e-12
9.57737e-11
5.42373e-12
9.37875e-11
6.05046e-12
9.15772e-11
6.71153e-12
8.91235e-11
7.45591e-12
8.64071e-11
8.22633e-12
8.34067e-11
9.09041e-12
8.01059e-11
9.96637e-12
7.64832e-11
1.09392e-11
7.25276e-11
1.19046e-11
6.82213e-11
1.29567e-11
6.35605e-11
1.39785e-11
5.85367e-11
1.50578e-11
5.31559e-11
1.6081e-11
4.74246e-11
1.71138e-11
4.13614e-11
1.80597e-11
3.49911e-11
1.89568e-11
2.83477e-11
1.97314e-11
2.14741e-11
2.03989e-11
1.44198e-11
2.09098e-11
7.24158e-12
2.12671e-11
2.14459e-11
1.11116e-10
2.54408e-14
1.11098e-10
7.66474e-14
1.11067e-10
1.2907e-13
1.11023e-10
1.83425e-13
1.10967e-10
2.4056e-13
1.10895e-10
3.01395e-13
1.10808e-10
3.66833e-13
1.10704e-10
4.37881e-13
1.10582e-10
5.15508e-13
1.1044e-10
6.00933e-13
1.10275e-10
6.95426e-13
1.10085e-10
8.00284e-13
1.09868e-10
9.17198e-13
1.09619e-10
1.04766e-12
1.09335e-10
1.19364e-12
1.09013e-10
1.35694e-12
1.08647e-10
1.54021e-12
1.08232e-10
1.74522e-12
1.07762e-10
1.97571e-12
1.0723e-10
2.23311e-12
1.06629e-10
2.52256e-12
1.05949e-10
2.84482e-12
1.05184e-10
3.2076e-12
1.0432e-10
3.60909e-12
1.03348e-10
4.06151e-12
1.02254e-10
4.55831e-12
1.01025e-10
5.11861e-12
9.96455e-11
5.7275e-12
9.81005e-11
6.41524e-12
9.637e-11
7.15232e-12
9.4438e-11
7.98604e-12
9.22826e-11
8.8644e-12
8.98847e-11
9.85881e-12
8.72227e-11
1.08852e-11
8.42741e-11
1.20454e-11
8.10212e-11
1.32159e-11
7.74384e-11
1.45295e-11
7.35153e-11
1.58247e-11
6.92272e-11
1.72533e-11
6.45725e-11
1.86312e-11
5.95352e-11
2.01037e-11
5.41227e-11
2.14928e-11
4.8338e-11
2.29069e-11
4.21992e-11
2.41995e-11
3.57318e-11
2.54319e-11
2.89696e-11
2.64962e-11
2.19592e-11
2.74161e-11
1.47521e-11
2.81208e-11
7.41067e-12
2.86143e-11
2.88614e-11
1.11154e-10
3.11235e-14
1.11137e-10
9.36817e-14
1.11108e-10
1.5766e-13
1.11067e-10
2.24127e-13
1.11014e-10
2.94007e-13
1.10947e-10
3.68368e-13
1.10865e-10
4.48355e-13
1.10768e-10
5.35198e-13
1.10654e-10
6.30104e-13
1.1052e-10
7.34663e-13
1.10365e-10
8.50241e-13
1.10187e-10
9.78559e-13
1.09982e-10
1.12166e-12
1.09748e-10
1.2814e-12
1.09482e-10
1.46023e-12
1.09178e-10
1.66027e-12
1.08834e-10
1.88488e-12
1.08443e-10
2.13636e-12
1.07999e-10
2.41916e-12
1.07497e-10
2.73511e-12
1.06929e-10
3.09081e-12
1.06286e-10
3.48697e-12
1.05561e-10
3.93335e-12
1.04741e-10
4.42788e-12
1.03818e-10
4.98551e-12
1.02776e-10
5.59868e-12
1.01604e-10
6.29112e-12
1.00285e-10
7.04449e-12
9.88048e-11
7.89682e-12
9.71426e-11
8.81162e-12
9.52814e-11
9.84862e-12
9.3199e-11
1.09429e-11
9.08742e-11
1.21849e-11
8.82851e-11
1.34694e-11
8.54062e-11
1.49254e-11
8.22181e-11
1.63981e-11
7.86922e-11
1.80558e-11
7.48148e-11
1.96953e-11
7.05584e-11
2.15089e-11
6.59164e-11
2.32657e-11
6.0871e-11
2.51471e-11
5.54239e-11
2.69319e-11
4.95759e-11
2.87515e-11
4.33425e-11
3.04248e-11
3.67482e-11
3.20217e-11
2.98281e-11
3.34084e-11
2.26313e-11
3.46075e-11
1.52144e-11
3.55303e-11
7.6462e-12
3.61765e-11
3.65009e-11
1.11226e-10
3.62675e-14
1.1121e-10
1.093e-13
1.11184e-10
1.83974e-13
1.11146e-10
2.61532e-13
1.11097e-10
3.43101e-13
1.11036e-10
4.29893e-13
1.10961e-10
5.23295e-13
1.10871e-10
6.24642e-13
1.10766e-10
7.35572e-13
1.10643e-10
8.57652e-13
1.105e-10
9.92731e-13
1.10336e-10
1.14277e-12
1.10148e-10
1.31001e-12
1.09932e-10
1.49683e-12
1.09686e-10
1.70607e-12
1.09406e-10
1.94029e-12
1.09088e-10
2.20334e-12
1.08726e-10
2.49807e-12
1.08316e-10
2.82958e-12
1.0785e-10
3.20037e-12
1.07324e-10
3.61816e-12
1.06726e-10
4.08375e-12
1.06052e-10
4.60897e-12
1.05287e-10
5.19136e-12
1.04425e-10
5.84908e-12
1.0345e-10
6.573e-12
1.02351e-10
7.39219e-12
1.01109e-10
8.28426e-12
9.97133e-11
9.29655e-12
9.81388e-11
1.03834e-11
9.63715e-11
1.16213e-11
9.43844e-11
1.29263e-11
9.21586e-11
1.44184e-11
8.96667e-11
1.59567e-11
8.68823e-11
1.77198e-11
8.37835e-11
1.94919e-11
8.0334e-11
2.15174e-11
7.65228e-11
2.3502e-11
7.23065e-11
2.57388e-11
6.76862e-11
2.78832e-11
6.26258e-11
3.02215e-11
5.71319e-11
3.24259e-11
5.11977e-11
3.46993e-11
4.48367e-11
3.67888e-11
3.80752e-11
3.87957e-11
3.09461e-11
4.0543e-11
2.35062e-11
4.20587e-11
1.58149e-11
4.32289e-11
7.9523e-12
4.40491e-11
4.44619e-11
1.11296e-10
4.08826e-14
1.11282e-10
1.23304e-13
1.11259e-10
2.07594e-13
1.11225e-10
2.95077e-13
1.11181e-10
3.87112e-13
1.11126e-10
4.85064e-13
1.11059e-10
5.90447e-13
1.10978e-10
7.0496e-13
1.10884e-10
8.30239e-13
1.10773e-10
9.68087e-13
1.10645e-10
1.12075e-12
1.10498e-10
1.29037e-12
1.10328e-10
1.47949e-12
1.10134e-10
1.69077e-12
1.09913e-10
1.92755e-12
1.0966e-10
2.19278e-12
1.09373e-10
2.49087e-12
1.09045e-10
2.82496e-12
1.08674e-10
3.20108e-12
1.08252e-10
3.62215e-12
1.07774e-10
4.09689e-12
1.0723e-10
4.62667e-12
1.06615e-10
5.22484e-12
1.05916e-10
5.88901e-12
1.05125e-10
6.64014e-12
1.04228e-10
7.46817e-12
1.03215e-10
8.40679e-12
1.02066e-10
9.43084e-12
1.00768e-10
1.05956e-11
9.92987e-11
1.18488e-11
9.76412e-11
1.32804e-11
9.57692e-11
1.47931e-11
9.36597e-11
1.65295e-11
9.12858e-11
1.83238e-11
8.86161e-11
2.03906e-11
8.56268e-11
2.2473e-11
8.22767e-11
2.48673e-11
7.85491e-11
2.722e-11
7.43979e-11
2.98879e-11
6.98129e-11
3.24573e-11
6.47577e-11
3.52723e-11
5.92254e-11
3.79462e-11
5.32058e-11
4.07122e-11
4.67056e-11
4.32763e-11
3.97485e-11
4.57444e-11
3.23686e-11
4.79103e-11
2.46254e-11
4.97922e-11
1.6588e-11
5.12545e-11
8.34706e-12
5.22796e-11
5.27979e-11
1.11364e-10
4.49145e-14
1.11352e-10
1.35487e-13
1.11332e-10
2.28107e-13
1.11303e-10
3.24254e-13
1.11264e-10
4.25398e-13
1.11216e-10
5.33087e-13
1.11158e-10
6.48941e-13
1.11088e-10
7.74846e-13
1.11006e-10
9.12621e-13
1.10909e-10
1.06434e-12
1.10798e-10
1.23235e-12
1.10669e-10
1.41911e-12
1.10521e-10
1.62744e-12
1.10351e-10
1.86025e-12
1.10158e-10
2.12138e-12
1.09936e-10
2.41396e-12
1.09684e-10
2.74307e-12
1.09397e-10
3.11211e-12
1.09071e-10
3.528e-12
1.08698e-10
3.99398e-12
1.08276e-10
4.51987e-12
1.07795e-10
5.10753e-12
1.07249e-10
5.77172e-12
1.06626e-10
6.51038e-12
1.05922e-10
7.34702e-12
1.05117e-10
8.27086e-12
1.04207e-10
9.32047e-12
1.03167e-10
1.04675e-11
1.01992e-10
1.17766e-11
1.00649e-10
1.31869e-11
9.91313e-11
1.48064e-11
9.74013e-11
1.65175e-11
9.54434e-11
1.84986e-11
9.32201e-11
2.05398e-11
9.07024e-11
2.29234e-11
8.78602e-11
2.53068e-11
8.46412e-11
2.81051e-11
8.10361e-11
3.08173e-11
7.69653e-11
3.398e-11
7.24426e-11
3.6975e-11
6.73874e-11
4.03492e-11
6.18065e-11
4.35275e-11
5.56782e-11
4.68614e-11
4.90001e-11
4.99601e-11
4.18026e-11
5.29613e-11
3.41092e-11
5.56133e-11
2.59955e-11
5.79234e-11
1.75317e-11
5.97304e-11
8.82936e-12
6.09975e-11
6.16411e-11
1.11463e-10
4.82478e-14
1.11453e-10
1.45605e-13
1.11436e-10
2.45188e-13
1.11412e-10
3.48587e-13
1.1138e-10
4.57344e-13
1.1134e-10
5.73164e-13
1.11291e-10
6.97868e-13
1.11232e-10
8.33297e-13
1.11163e-10
9.81549e-13
1.11083e-10
1.14489e-12
1.10989e-10
1.32583e-12
1.10881e-10
1.52704e-12
1.10757e-10
1.75162e-12
1.10615e-10
2.0027e-12
1.10452e-10
2.28449e-12
1.10265e-10
2.60044e-12
1.10052e-10
2.95603e-12
1.09809e-10
3.35515e-12
1.09532e-10
3.80529e-12
1.09215e-10
4.31022e-12
1.08855e-10
4.88056e-12
1.08442e-10
5.51884e-12
1.07974e-10
6.24111e-12
1.07437e-10
7.04584e-12
1.06826e-10
7.95867e-12
1.06126e-10
8.96889e-12
1.05329e-10
1.01188e-11
1.04414e-10
1.1379e-11
1.03372e-10
1.28208e-11
1.02175e-10
1.43787e-11
1.00809e-10
1.61741e-11
9.92426e-11
1.80773e-11
9.74521e-11
2.02915e-11
9.54029e-11
2.25799e-11
9.30571e-11
2.52708e-11
9.03848e-11
2.79679e-11
8.7326e-11
3.11637e-11
8.38627e-11
3.42673e-11
7.99153e-11
3.79242e-11
7.54742e-11
4.14006e-11
7.04675e-11
4.53489e-11
6.48706e-11
4.91066e-11
5.86548e-11
5.30661e-11
5.18048e-11
5.67909e-11
4.43409e-11
6.04111e-11
3.62895e-11
6.36454e-11
2.77249e-11
6.64724e-11
1.87341e-11
6.8703e-11
9.4456e-12
7.02698e-11
7.10697e-11
1.11557e-10
5.09039e-14
1.11549e-10
1.53584e-13
1.11536e-10
2.58626e-13
1.11517e-10
3.67729e-13
1.11492e-10
4.82471e-13
1.1146e-10
6.04666e-13
1.11422e-10
7.36332e-13
1.11375e-10
8.79348e-13
1.11321e-10
1.03592e-12
1.11258e-10
1.20848e-12
1.11184e-10
1.39972e-12
1.11098e-10
1.61241e-12
1.11e-10
1.85004e-12
1.10887e-10
2.11586e-12
1.10757e-10
2.41426e-12
1.10608e-10
2.74915e-12
1.10438e-10
3.12625e-12
1.10243e-10
3.54997e-12
1.10021e-10
4.02826e-12
1.09765e-10
4.56541e-12
1.09474e-10
5.17273e-12
1.09138e-10
5.85349e-12
1.08756e-10
6.62479e-12
1.08315e-10
7.48585e-12
1.07812e-10
8.46414e-12
1.07229e-10
9.54949e-12
1.06565e-10
1.07875e-11
1.05792e-10
1.2148e-11
1.0491e-10
1.37092e-11
1.03882e-10
1.54012e-11
1.02707e-10
1.73602e-11
1.01334e-10
1.94413e-11
9.976e-11
2.18817e-11
9.7926e-11
2.44024e-11
9.58098e-11
2.74091e-11
9.33629e-11
3.04006e-11
9.05168e-11
3.40379e-11
8.72676e-11
3.75022e-11
8.34667e-11
4.17574e-11
7.91782e-11
4.56796e-11
7.42107e-11
5.03485e-11
6.85788e-11
5.47395e-11
6.22508e-11
5.94243e-11
5.51746e-11
6.38774e-11
4.73924e-11
6.82214e-11
3.88971e-11
7.21569e-11
2.97937e-11
7.56014e-11
2.01668e-11
7.83491e-11
1.01806e-11
8.02789e-11
8.12712e-11
1.11645e-10
5.27858e-14
1.11639e-10
1.59283e-13
1.1163e-10
2.68246e-13
1.11616e-10
3.81343e-13
1.11598e-10
5.00392e-13
1.11576e-10
6.27185e-13
1.11548e-10
7.6377e-13
1.11515e-10
9.12181e-13
1.11477e-10
1.07479e-12
1.11431e-10
1.25409e-12
1.11378e-10
1.4528e-12
1.11316e-10
1.67392e-12
1.11245e-10
1.92112e-12
1.11163e-10
2.19779e-12
1.11069e-10
2.50851e-12
1.10961e-10
2.85754e-12
1.10836e-10
3.25081e-12
1.10693e-10
3.69322e-12
1.10528e-10
4.19296e-12
1.10338e-10
4.75494e-12
1.1012e-10
5.39111e-12
1.09867e-10
6.10535e-12
1.09577e-10
6.91557e-12
1.09239e-10
7.82219e-12
1.08851e-10
8.85374e-12
1.08396e-10
1.00016e-11
1.07872e-10
1.13131e-11
1.07256e-10
1.27598e-11
1.06544e-10
1.44239e-11
1.05703e-10
1.62353e-11
1.04727e-10
1.83396e-11
1.03574e-10
2.05858e-11
1.02226e-10
2.32332e-11
1.00636e-10
2.59801e-11
9.87652e-11
2.92835e-11
9.65714e-11
3.25796e-11
9.39714e-11
3.66389e-11
9.09516e-11
4.05042e-11
8.73709e-11
4.53347e-11
8.32451e-11
4.97846e-11
7.84311e-11
5.51529e-11
7.28641e-11
6.02807e-11
6.64912e-11
6.57802e-11
5.92438e-11
7.10963e-11
5.11337e-11
7.63094e-11
4.21617e-11
8.11002e-11
3.24163e-11
8.53227e-11
2.20088e-11
8.87298e-11
1.11304e-11
9.11334e-11
9.23771e-11
1.11759e-10
5.38704e-14
1.11756e-10
1.62536e-13
1.11751e-10
2.73767e-13
1.11743e-10
3.89232e-13
1.11732e-10
5.10782e-13
1.11719e-10
6.40301e-13
1.11703e-10
7.79778e-13
1.11684e-10
9.31397e-13
1.11661e-10
1.09756e-12
1.11634e-10
1.28087e-12
1.11603e-10
1.48418e-12
1.11566e-10
1.71049e-12
1.11524e-10
1.96355e-12
1.11475e-10
2.24695e-12
1.11418e-10
2.56549e-12
1.11352e-10
2.92356e-12
1.11276e-10
3.32735e-12
1.11186e-10
3.78209e-12
1.11084e-10
4.29613e-12
1.10963e-10
4.87508e-12
1.10824e-10
5.53105e-12
1.1066e-10
6.26894e-12
1.1047e-10
7.10694e-12
1.10243e-10
8.04713e-12
1.09982e-10
9.1181e-12
1.09667e-10
1.0314e-11
1.09303e-10
1.16822e-11
1.0886e-10
1.31985e-11
1.08347e-10
1.4945e-11
1.07717e-10
1.68576e-11
1.06987e-10
1.90838e-11
1.06084e-10
2.14763e-11
1.05032e-10
2.43072e-11
1.03733e-10
2.72614e-11
1.02198e-10
3.08487e-11
1.00331e-10
3.44234e-11
9.80722e-11
3.89388e-11
9.54112e-11
4.3139e-11
9.20796e-11
4.87145e-11
8.83225e-11
5.35224e-11
8.36274e-11
5.9893e-11
7.8041e-11
6.58704e-11
7.16039e-11
7.22585e-11
6.41027e-11
7.86163e-11
5.56083e-11
8.48427e-11
4.60336e-11
9.07021e-11
3.55209e-11
9.58716e-11
2.41763e-11
1.00104e-10
1.22477e-11
1.03094e-10
1.04655e-10
1.11864e-10
5.42188e-14
1.11863e-10
1.63407e-13
1.11862e-10
2.75146e-13
1.1186e-10
3.91235e-13
1.11857e-10
5.13432e-13
1.11854e-10
6.43708e-13
1.1185e-10
7.84025e-13
1.11844e-10
9.36595e-13
1.11838e-10
1.10385e-12
1.11831e-10
1.28838e-12
1.11822e-10
1.49321e-12
1.11811e-10
1.7213e-12
1.11798e-10
1.97646e-12
1.11782e-10
2.26245e-12
1.11764e-10
2.58402e-12
1.11741e-10
2.94588e-12
1.11715e-10
3.35419e-12
1.11682e-10
3.81447e-12
1.11643e-10
4.33532e-12
1.11595e-10
4.92283e-12
1.11537e-10
5.58911e-12
1.11465e-10
6.34016e-12
1.11379e-10
7.19397e-12
1.11269e-10
8.15453e-12
1.11139e-10
9.25007e-12
1.10972e-10
1.04779e-11
1.10772e-10
1.18846e-11
1.10514e-10
1.34511e-11
1.10204e-10
1.52582e-11
1.09805e-10
1.72496e-11
1.09321e-10
1.95722e-11
1.08699e-10
2.20875e-11
1.07938e-10
2.50738e-11
1.06969e-10
2.82154e-11
1.05767e-10
3.20573e-11
1.04263e-10
3.59071e-11
1.02361e-10
4.0846e-11
1.00053e-10
4.54236e-11
9.70787e-11
5.16878e-11
9.35867e-11
5.69883e-11
8.92754e-11
6.41942e-11
8.39689e-11
7.11392e-11
7.76107e-11
7.85916e-11
7.00091e-11
8.61762e-11
6.11567e-11
9.36609e-11
5.09869e-11
1.00829e-10
3.95793e-11
1.07243e-10
2.70699e-11
1.12575e-10
1.37536e-11
1.16377e-10
1.18375e-10
1.11958e-10
5.36787e-14
1.1196e-10
1.61774e-13
1.11963e-10
2.72403e-13
1.11967e-10
3.8732e-13
1.11972e-10
5.08331e-13
1.11978e-10
6.37381e-13
1.11986e-10
7.76382e-13
1.11995e-10
9.27615e-13
1.12005e-10
1.09345e-12
1.12017e-10
1.27646e-12
1.12031e-10
1.47963e-12
1.12046e-10
1.70605e-12
1.12063e-10
1.95948e-12
1.12082e-10
2.2437e-12
1.12102e-10
2.56345e-12
1.12124e-10
2.92356e-12
1.12149e-10
3.33022e-12
1.12174e-10
3.78917e-12
1.12201e-10
4.30894e-12
1.12227e-10
4.89615e-12
1.12254e-10
5.56263e-12
1.12278e-10
6.31563e-12
1.12302e-10
7.17237e-12
1.12315e-10
8.13925e-12
1.12326e-10
9.24273e-12
1.12315e-10
1.04851e-11
1.12297e-10
1.19086e-11
1.12238e-10
1.35045e-11
1.12162e-10
1.5344e-11
1.12011e-10
1.73905e-11
1.11829e-10
1.97718e-11
1.11514e-10
2.23866e-11
1.11138e-10
2.54764e-11
1.10539e-10
2.87898e-11
1.09819e-10
3.28167e-11
1.08751e-10
3.69393e-11
1.07411e-10
4.22443e-11
1.05637e-10
4.71496e-11
1.03044e-10
5.43555e-11
1.00537e-10
5.94524e-11
9.64767e-11
6.8312e-11
9.10113e-11
7.6617e-11
8.47692e-11
8.48848e-11
7.69892e-11
9.39915e-11
6.77462e-11
1.02956e-10
5.67959e-11
1.11825e-10
4.42964e-11
1.19793e-10
3.04028e-11
1.26513e-10
1.54833e-11
1.31339e-10
1.33898e-10
1.12074e-10
5.22496e-14
1.12078e-10
1.57655e-13
1.12085e-10
2.65533e-13
1.12095e-10
3.77557e-13
1.12108e-10
4.95548e-13
1.12124e-10
6.21356e-13
1.12143e-10
7.56967e-13
1.12166e-10
9.04547e-13
1.12193e-10
1.06643e-12
1.12225e-10
1.24511e-12
1.12261e-10
1.44353e-12
1.12302e-10
1.66483e-12
1.12349e-10
1.9126e-12
1.12402e-10
2.1907e-12
1.12462e-10
2.50376e-12
1.12528e-10
2.85657e-12
1.12604e-10
3.25529e-12
1.12686e-10
3.70583e-12
1.12779e-10
4.21642e-12
1.1288e-10
4.79429e-12
1.12993e-10
5.45062e-12
1.13114e-10
6.19378e-12
1.13247e-10
7.04019e-12
1.13386e-10
7.99833e-12
1.13538e-10
9.09266e-12
1.13689e-10
1.03302e-11
1.13852e-10
1.17489e-11
1.14001e-10
1.33491e-11
1.14156e-10
1.51939e-11
1.14273e-10
1.7264e-11
1.14381e-10
1.96711e-11
1.14408e-10
2.23459e-11
1.14392e-10
2.55021e-11
1.14222e-10
2.89403e-11
1.13936e-10
3.31157e-11
1.13383e-10
3.74655e-11
1.12531e-10
4.31102e-11
1.11299e-10
4.83488e-11
1.09183e-10
5.64787e-11
1.06921e-10
6.16888e-11
1.03788e-10
3.84771e-11
3.29669e-11
9.92105e-11
3.77407e-11
4.33967e-11
9.33019e-11
4.25175e-11
4.82372e-11
8.56119e-11
4.79849e-11
5.3635e-11
7.60832e-11
5.34973e-11
5.89307e-11
6.45027e-11
5.91519e-11
6.41859e-11
5.0819e-11
6.45378e-11
6.88774e-11
3.5159e-11
6.93796e-11
7.27349e-11
1.79928e-11
7.31648e-11
7.5291e-11
7.55576e-11
7.62867e-11
1.12173e-10
5.01002e-14
1.12179e-10
1.512e-13
1.1219e-10
2.54611e-13
1.12206e-10
3.62026e-13
1.12226e-10
4.75169e-13
1.12251e-10
5.9583e-13
1.12282e-10
7.26019e-13
1.12319e-10
8.67631e-13
1.12363e-10
1.0231e-12
1.12413e-10
1.1947e-12
1.12471e-10
1.38531e-12
1.12538e-10
1.59807e-12
1.12614e-10
1.83634e-12
1.12701e-10
2.10398e-12
1.128e-10
2.40539e-12
1.12911e-10
2.74547e-12
1.13036e-10
3.12995e-12
1.13177e-10
3.56491e-12
1.13336e-10
4.0582e-12
1.13512e-10
4.61741e-12
1.13711e-10
5.25306e-12
1.13929e-10
5.97444e-12
1.14175e-10
6.79648e-12
1.1444e-10
7.73032e-12
1.1474e-10
8.79698e-12
1.15057e-10
1.00096e-11
1.15414e-10
1.13986e-11
1.15778e-10
1.29777e-11
1.1619e-10
1.47934e-11
1.16586e-10
1.68564e-11
1.17037e-10
1.92394e-11
1.17421e-10
2.19425e-11
1.17869e-10
2.50844e-11
1.18144e-10
2.8634e-11
1.18511e-10
3.27967e-11
1.18468e-10
3.74593e-11
1.1865e-10
4.30041e-11
1.17806e-10
4.91095e-11
1.17874e-10
5.6542e-11
5.84514e-11
6.44784e-11
5.64764e-11
-3.37504e-11
3.47341e-11
5.78419e-11
-5.50444e-11
5.40416e-11
3.8634e-11
-5.326e-11
5.18605e-11
4.38487e-11
-5.05235e-11
4.8766e-11
4.97065e-11
-4.69428e-11
4.4615e-11
5.58118e-11
-4.21183e-11
3.91788e-11
6.20924e-11
-3.59583e-11
3.23834e-11
6.81177e-11
-2.84771e-11
2.43007e-11
7.35623e-11
-1.98134e-11
1.51058e-11
7.7882e-11
-1.01761e-11
5.12833e-12
8.06223e-11
1.12269e-10
4.71912e-14
1.12278e-10
1.42356e-13
1.12293e-10
2.39741e-13
1.12314e-10
3.40948e-13
1.12341e-10
4.47567e-13
1.12376e-10
5.61248e-13
1.12418e-10
6.83913e-13
1.12468e-10
8.17432e-13
1.12527e-10
9.64036e-13
1.12596e-10
1.1259e-12
1.12676e-10
1.3058e-12
1.12767e-10
1.50667e-12
1.12872e-10
1.73167e-12
1.12991e-10
1.98459e-12
1.13127e-10
2.26962e-12
1.13281e-10
2.59149e-12
1.13455e-10
2.95556e-12
1.13652e-10
3.36796e-12
1.13875e-10
3.83593e-12
1.14124e-10
4.3672e-12
1.14406e-10
4.97158e-12
1.1472e-10
5.65908e-12
1.15075e-10
6.44291e-12
1.15467e-10
7.3363e-12
1.15909e-10
8.35708e-12
1.16391e-10
9.52291e-12
1.16936e-10
1.08582e-11
1.1752e-10
1.23868e-11
1.18178e-10
1.41417e-11
1.18867e-10
1.6157e-11
1.1964e-10
1.84756e-11
1.20417e-10
2.11495e-11
1.21286e-10
2.42288e-11
1.22093e-10
2.78041e-11
1.23004e-10
3.19065e-11
1.23687e-10
3.67407e-11
1.24547e-10
4.21775e-11
1.24741e-10
4.88583e-11
1.25566e-10
5.57806e-11
6.37942e-11
6.55966e-11
6.05472e-11
-3.50824e-11
3.57054e-11
6.34618e-11
-5.98577e-11
5.91004e-11
-3.98432e-11
4.04372e-11
-5.85304e-11
5.74225e-11
-4.54942e-11
4.64874e-11
-5.63343e-11
5.47552e-11
-5.17741e-11
5.32787e-11
-5.30675e-11
5.08193e-11
-5.84469e-11
6.06535e-11
-4.83831e-11
4.52641e-11
-6.52729e-11
6.83758e-11
-4.17414e-11
3.78414e-11
-7.20528e-11
7.59432e-11
-3.34715e-11
2.87246e-11
-7.82247e-11
8.29651e-11
-2.35384e-11
1.80183e-11
-8.31417e-11
8.86619e-11
-1.21817e-11
6.1488e-12
-8.62181e-11
9.22636e-11
1.12362e-10
4.35253e-14
1.12373e-10
1.31326e-13
1.12392e-10
2.21249e-13
1.12418e-10
3.14636e-13
1.12453e-10
4.13077e-13
1.12496e-10
5.18104e-13
1.12548e-10
6.31321e-13
1.12611e-10
7.54651e-13
1.12685e-10
8.90057e-13
1.12771e-10
1.03968e-12
1.12871e-10
1.20604e-12
1.12986e-10
1.39187e-12
1.13118e-10
1.60003e-12
1.13268e-10
1.83423e-12
1.13439e-10
2.09829e-12
1.13634e-10
2.39661e-12
1.13856e-10
2.73431e-12
1.14106e-10
3.1173e-12
1.1439e-10
3.55212e-12
1.1471e-10
4.04649e-12
1.15074e-10
4.60923e-12
1.15481e-10
5.25084e-12
1.15944e-10
5.98262e-12
1.16458e-10
6.81944e-12
1.17044e-10
7.77554e-12
1.17689e-10
8.87296e-12
1.18426e-10
1.01287e-11
1.19228e-10
1.15772e-11
1.20145e-10
1.32359e-11
1.21127e-10
1.51631e-11
1.22254e-10
1.73677e-11
1.23427e-10
1.9957e-11
1.2478e-10
2.29055e-11
1.26125e-10
2.64277e-11
1.27686e-10
3.03905e-11
1.29116e-10
3.5262e-11
1.30779e-10
4.05836e-11
1.32075e-10
4.74855e-11
1.33463e-10
5.44943e-11
6.90808e-11
6.46728e-11
6.51926e-11
-3.56626e-11
3.57557e-11
6.9217e-11
-6.5246e-11
6.48815e-11
-4.12796e-11
4.15216e-11
-6.46442e-11
6.39351e-11
-4.77227e-11
4.83575e-11
-6.31821e-11
6.19643e-11
-5.50481e-11
5.62331e-11
-6.05658e-11
5.85834e-11
-6.31159e-11
6.51047e-11
-5.65459e-11
5.31432e-11
-7.13053e-11
7.47556e-11
-4.90786e-11
4.49131e-11
-8.00343e-11
8.42333e-11
-4.00432e-11
3.46585e-11
-8.8184e-11
9.35893e-11
-2.8612e-11
2.20353e-11
-9.48258e-11
1.01416e-10
-1.49692e-11
7.5759e-12
-9.90168e-11
1.06426e-10
1.12447e-10
3.92411e-14
1.1246e-10
1.18374e-13
1.12482e-10
1.99374e-13
1.12513e-10
2.83518e-13
1.12554e-10
3.72196e-13
1.12605e-10
4.66907e-13
1.12667e-10
5.69005e-13
1.12742e-10
6.80195e-13
1.1283e-10
8.02333e-13
1.12932e-10
9.3734e-13
1.13051e-10
1.08749e-12
1.13187e-10
1.25526e-12
1.13344e-10
1.44332e-12
1.13523e-10
1.65501e-12
1.13728e-10
1.89371e-12
1.1396e-10
2.16362e-12
1.14226e-10
2.46937e-12
1.14526e-10
2.81643e-12
1.14868e-10
3.21069e-12
1.15254e-10
3.65955e-12
1.15693e-10
4.17074e-12
1.16188e-10
4.75488e-12
1.16751e-10
5.42132e-12
1.17382e-10
6.18566e-12
1.18101e-10
7.05905e-12
1.18904e-10
8.0661e-12
1.19819e-10
9.2176e-12
1.20835e-10
1.05549e-11
1.21994e-10
1.20833e-11
1.23269e-10
1.38773e-11
1.24726e-10
1.59209e-11
1.26309e-10
1.83584e-11
1.28118e-10
2.11116e-11
1.30043e-10
2.44785e-11
1.32245e-10
2.82129e-11
1.34505e-10
3.29655e-11
1.3708e-10
3.80477e-11
1.39564e-10
4.49454e-11
1.42282e-10
5.18397e-11
7.44391e-11
6.21735e-11
7.0255e-11
-3.53242e-11
3.48736e-11
7.5068e-11
-7.12064e-11
7.13381e-11
-4.18518e-11
4.16281e-11
-7.15827e-11
7.14233e-11
-4.90705e-11
4.91839e-11
-7.11387e-11
7.05255e-11
-5.75766e-11
5.81847e-11
-6.94245e-11
6.82479e-11
-6.76349e-11
6.885e-11
-3.35201e-11
-4.03255e-11
3.23778e-11
4.10994e-11
-2.97118e-11
-4.69261e-11
2.83552e-11
4.79952e-11
-2.42561e-11
-5.27454e-11
2.24699e-11
5.43235e-11
-1.6808e-11
-5.74436e-11
1.45771e-11
5.95436e-11
-7.59379e-12
6.26687e-11
-6.0199e-11
5.06931e-12
1.12522e-10
3.43577e-14
1.12537e-10
1.03559e-13
1.12562e-10
1.74415e-13
1.12598e-10
2.48073e-13
1.12644e-10
3.25656e-13
1.12703e-10
4.08449e-13
1.12774e-10
4.97815e-13
1.12859e-10
5.95204e-13
1.12959e-10
7.02148e-13
1.13076e-10
8.20399e-13
1.13212e-10
9.51922e-13
1.13368e-10
1.09894e-12
1.13547e-10
1.26387e-12
1.13753e-10
1.44954e-12
1.13988e-10
1.65896e-12
1.14255e-10
1.89602e-12
1.1456e-10
2.16457e-12
1.14907e-10
2.46973e-12
1.15302e-10
2.81648e-12
1.15748e-10
3.21186e-12
1.16258e-10
3.66236e-12
1.16834e-10
4.17803e-12
1.17491e-10
4.76654e-12
1.1823e-10
5.44347e-12
1.19077e-10
6.21695e-12
1.20026e-10
7.11242e-12
1.21114e-10
8.13581e-12
1.22331e-10
9.33161e-12
1.23729e-10
1.06962e-11
1.25282e-10
1.2312e-11
1.27073e-10
1.41476e-11
1.29049e-10
1.63642e-11
1.31328e-10
1.88585e-11
1.33821e-10
2.19576e-11
1.36688e-10
2.53851e-11
1.39789e-10
2.98217e-11
1.43303e-10
3.45894e-11
1.47068e-10
4.11206e-11
1.5113e-10
4.78503e-11
7.98522e-11
5.77449e-11
7.56269e-11
-3.39316e-11
3.28348e-11
8.10908e-11
-7.76559e-11
7.84074e-11
-4.13231e-11
4.0501e-11
-7.93015e-11
7.98432e-11
-4.91592e-11
4.85881e-11
-8.03069e-11
8.04059e-11
-5.86011e-11
5.85066e-11
-8.01531e-11
7.94105e-11
-6.97515e-11
7.05273e-11
-4.05442e-11
-4.32861e-11
3.96757e-11
4.3787e-11
-3.6955e-11
-5.1339e-11
3.56749e-11
5.23807e-11
-3.10776e-11
-5.95232e-11
2.91437e-11
6.13137e-11
-2.2162e-11
-6.67112e-11
1.94311e-11
6.93666e-11
-1.02102e-11
7.45625e-11
-7.125e-11
6.87287e-12
1.1259e-10
2.88948e-14
1.12607e-10
8.71031e-14
1.12635e-10
1.46749e-13
1.12674e-10
2.08743e-13
1.12725e-10
2.74083e-13
1.1279e-10
3.43746e-13
1.12869e-10
4.18934e-13
1.12963e-10
5.00954e-13
1.13074e-10
5.90986e-13
1.13204e-10
6.90609e-13
1.13355e-10
8.0142e-13
1.13528e-10
9.25324e-13
1.13728e-10
1.06438e-12
1.13956e-10
1.22091e-12
1.14218e-10
1.39762e-12
1.14516e-10
1.59772e-12
1.14856e-10
1.82448e-12
1.15243e-10
2.0824e-12
1.15685e-10
2.37553e-12
1.16185e-10
2.71025e-12
1.16757e-10
3.0917e-12
1.17405e-10
3.52904e-12
1.18145e-10
4.02824e-12
1.18981e-10
4.60396e-12
1.19939e-10
5.26169e-12
1.21022e-10
6.02593e-12
1.22263e-10
6.89882e-12
1.23664e-10
7.92442e-12
1.25274e-10
9.09286e-12
1.27088e-10
1.04878e-11
1.29179e-10
1.20675e-11
1.3153e-10
1.39976e-11
1.34245e-10
1.61595e-11
1.37292e-10
1.88887e-11
1.40809e-10
2.18915e-11
1.44746e-10
2.58528e-11
1.49264e-10
3.01061e-11
1.54311e-10
3.60282e-11
1.59981e-10
4.22303e-11
8.51825e-11
5.1342e-11
8.11381e-11
-3.1327e-11
2.95645e-11
8.70573e-11
-8.44054e-11
8.59026e-11
-3.94455e-11
3.78919e-11
-8.76215e-11
8.90805e-11
-4.76859e-11
4.62065e-11
-9.05714e-11
9.17601e-11
-5.79651e-11
5.67831e-11
-9.27526e-11
9.32499e-11
-7.07235e-11
7.02533e-11
-4.88051e-11
-4.5077e-11
4.82626e-11
4.5265e-11
-4.6481e-11
-5.54178e-11
4.54042e-11
5.62909e-11
-4.10459e-11
-6.70753e-11
3.89805e-11
6.9044e-11
-3.06622e-11
-7.84746e-11
2.71564e-11
8.19546e-11
-1.46432e-11
9.11304e-11
-8.63842e-11
9.9072e-12
1.12647e-10
2.29904e-14
1.12664e-10
6.93378e-14
1.12694e-10
1.16806e-13
1.12737e-10
1.66136e-13
1.12793e-10
2.18189e-13
1.12863e-10
2.73728e-13
1.12948e-10
3.33563e-13
1.1305e-10
3.98878e-13
1.13171e-10
4.70575e-13
1.13311e-10
5.49942e-13
1.13475e-10
6.38305e-13
1.13663e-10
7.37039e-13
1.13879e-10
8.47883e-13
1.14127e-10
9.72724e-13
1.14412e-10
1.11376e-12
1.14736e-10
1.27346e-12
1.15106e-10
1.45453e-12
1.15527e-10
1.66058e-12
1.16009e-10
1.89486e-12
1.16556e-10
2.16264e-12
1.17181e-10
2.46781e-12
1.1789e-10
2.81834e-12
1.18702e-10
3.21845e-12
1.19623e-10
3.68074e-12
1.20679e-10
4.20905e-12
1.21877e-10
4.8246e-12
1.23254e-10
5.52761e-12
1.24815e-10
6.35679e-12
1.26617e-10
7.30132e-12
1.28659e-10
8.43475e-12
1.31023e-10
9.71848e-12
1.33708e-10
1.12969e-11
1.36823e-10
1.3067e-11
1.40371e-10
1.53166e-11
1.4449e-10
1.78041e-11
1.49209e-10
2.1101e-11
1.54668e-10
2.46891e-11
1.60975e-10
2.96772e-11
1.68202e-10
3.50547e-11
9.0138e-11
4.28597e-11
8.64919e-11
-2.74115e-11
2.49503e-11
9.26884e-11
-9.11324e-11
9.34903e-11
-3.59872e-11
3.35843e-11
-9.61757e-11
9.8766e-11
-4.42373e-11
4.16319e-11
-1.0155e-10
1.04225e-10
-5.49295e-11
5.22601e-11
-1.06918e-10
1.09351e-10
-6.88964e-11
6.64842e-11
-5.86797e-11
-4.51083e-11
5.87646e-11
4.46899e-11
-5.9054e-11
-5.81514e-11
5.86262e-11
5.83982e-11
-5.61199e-11
-7.46658e-11
5.46565e-11
7.60612e-11
-4.48655e-11
-9.35402e-11
4.04984e-11
9.79548e-11
-2.30448e-11
1.15944e-10
-1.08606e-10
1.57791e-11
1.1269e-10
1.67298e-14
1.12709e-10
5.04714e-14
1.12741e-10
8.50758e-14
1.12786e-10
1.20977e-13
1.12845e-10
1.58903e-13
1.1292e-10
1.99383e-13
1.1301e-10
2.42994e-13
1.13119e-10
2.90603e-13
1.13246e-10
3.42781e-13
1.13396e-10
4.00633e-13
1.13569e-10
4.65096e-13
1.13769e-10
5.37063e-13
1.13999e-10
6.17875e-13
1.14263e-10
7.08938e-13
1.14565e-10
8.11799e-13
1.1491e-10
9.28405e-13
1.15304e-10
1.06056e-12
1.15753e-10
1.21103e-12
1.16266e-10
1.38219e-12
1.1685e-10
1.57796e-12
1.17518e-10
1.80112e-12
1.18277e-10
2.05771e-12
1.19146e-10
2.35063e-12
1.20135e-10
2.68965e-12
1.2127e-10
3.07695e-12
1.22561e-10
3.52944e-12
1.24047e-10
4.04583e-12
1.2574e-10
4.65731e-12
1.27696e-10
5.35271e-12
1.29929e-10
6.19215e-12
1.32517e-10
7.14061e-12
1.35484e-10
8.31621e-12
1.38935e-10
9.63054e-12
1.42914e-10
1.13182e-11
1.47559e-10
1.31802e-11
1.52958e-10
1.56752e-11
1.59279e-10
1.83972e-11
1.6671e-10
2.2212e-11
1.75424e-10
2.63786e-11
9.44114e-11
3.24322e-11
9.13959e-11
-2.21564e-11
1.90552e-11
9.75808e-11
-9.74128e-11
1.00677e-10
-3.07614e-11
2.74632e-11
-1.04398e-10
1.08252e-10
-3.84298e-11
3.45648e-11
-1.12517e-10
1.16988e-10
-4.87344e-11
4.42695e-11
-1.21806e-10
1.2682e-10
-6.28513e-11
5.7854e-11
-6.98075e-11
-4.20876e-11
7.0911e-11
4.06889e-11
-7.47978e-11
-5.74107e-11
7.57329e-11
5.63166e-11