/*--------------------------------*- C++ -*----------------------------------*\
| =========                 |                                                 |
| \\      /  F ield         | foam-extend: Open Source CFD                    |
|  \\    /   O peration     | Version:     4.0                                |
|   \\  /    A nd           | Web:         http://www.foam-extend.org         |
|    \\/     M anipulation  |                                                 |
\*---------------------------------------------------------------------------*/
FoamFile
{
    version     2.0;
    format      ascii;
    class       volVectorField;
    location    "0.0019";
    object      U;
}
// * * * * * * * * * * * * * * * * * * * * * * * * * * * * * * * * * * * * * //

dimensions      [0 1 -1 0 0 0 0];

internalField   nonuniform List<vector> 
28770
(
(0.00378017 1.10043e-07 0)
(0.00377972 3.32532e-07 0)
(0.00377881 5.61047e-07 0)
(0.00377744 7.96991e-07 0)
(0.00377557 1.04594e-06 0)
(0.00377319 1.30922e-06 0)
(0.00377024 1.59362e-06 0)
(0.00376671 1.89723e-06 0)
(0.00376252 2.23424e-06 0)
(0.00375761 2.60696e-06 0)
(0.0037519 3.01728e-06 0)
(0.00374533 3.47012e-06 0)
(0.00373778 3.97402e-06 0)
(0.00372915 4.54083e-06 0)
(0.0037193 5.17185e-06 0)
(0.0037081 5.87657e-06 0)
(0.00369537 6.66856e-06 0)
(0.00368096 7.5545e-06 0)
(0.00366462 8.54428e-06 0)
(0.00364619 9.65375e-06 0)
(0.00362531 1.09008e-05 0)
(0.00360184 1.22852e-05 0)
(0.00357529 1.38443e-05 0)
(0.00354553 1.55649e-05 0)
(0.00351191 1.7502e-05 0)
(0.00347437 1.96217e-05 0)
(0.00343202 2.20159e-05 0)
(0.00338489 2.45994e-05 0)
(0.00333185 2.75313e-05 0)
(0.00327306 3.06413e-05 0)
(0.0032071 3.41822e-05 0)
(0.00313428 3.78536e-05 0)
(0.00305301 4.20644e-05 0)
(0.00296362 4.63073e-05 0)
(0.00286453 5.11992e-05 0)
(0.002756 5.59777e-05 0)
(0.00263676 6.14737e-05 0)
(0.00250679 6.66907e-05 0)
(0.00236545 7.2607e-05 0)
(0.00221242 7.8078e-05 0)
(0.00204786 8.40974e-05 0)
(0.00187125 8.95303e-05 0)
(0.00168364 9.52186e-05 0)
(0.00148456 0.000100209 0)
(0.00127582 0.000105084 0)
(0.00105729 0.000109146 0)
(0.000831373 0.000112733 0)
(0.000598411 0.000115399 0)
(0.000361226 0.000117304 0)
(0.000120559 0.000118235 0)
(0.0037806 3.28459e-07 0)
(0.00378016 9.94628e-07 0)
(0.00377926 1.6708e-06 0)
(0.00377791 2.37501e-06 0)
(0.00377607 3.11763e-06 0)
(0.00377373 3.9065e-06 0)
(0.00377083 4.75244e-06 0)
(0.00376734 5.67068e-06 0)
(0.00376321 6.67524e-06 0)
(0.00375837 7.78212e-06 0)
(0.00375275 9.00524e-06 0)
(0.00374627 1.03585e-05 0)
(0.00373883 1.18726e-05 0)
(0.00373032 1.35557e-05 0)
(0.00372061 1.54395e-05 0)
(0.00370957 1.75459e-05 0)
(0.00369701 1.99081e-05 0)
(0.00368281 2.25494e-05 0)
(0.00366668 2.55131e-05 0)
(0.0036485 2.88204e-05 0)
(0.00362788 3.25399e-05 0)
(0.00360472 3.66706e-05 0)
(0.00357849 4.13147e-05 0)
(0.00354912 4.64512e-05 0)
(0.00351588 5.22175e-05 0)
(0.00347879 5.85501e-05 0)
(0.00343689 6.56618e-05 0)
(0.00339029 7.33965e-05 0)
(0.00333776 8.20659e-05 0)
(0.00327957 9.13909e-05 0)
(0.00321417 0.000101815 0)
(0.003142 0.000112877 0)
(0.00306129 0.00012519 0)
(0.00297255 0.000138057 0)
(0.002874 0.000152254 0)
(0.00276607 0.000166842 0)
(0.00264725 0.00018272 0)
(0.0025177 0.000198743 0)
(0.0023766 0.000215809 0)
(0.00222367 0.000232685 0)
(0.00205907 0.000250113 0)
(0.00188214 0.0002669 0)
(0.0016941 0.000283533 0)
(0.00149422 0.000298952 0)
(0.00128457 0.000313367 0)
(0.00106478 0.00032592 0)
(0.000837496 0.000336626 0)
(0.000602889 0.000344872 0)
(0.000364003 0.000350595 0)
(0.00012147 0.000353473 0)
(0.00378146 5.44135e-07 0)
(0.00378103 1.63969e-06 0)
(0.00378017 2.75913e-06 0)
(0.00377885 3.91966e-06 0)
(0.00377707 5.1441e-06 0)
(0.00377479 6.44571e-06 0)
(0.00377198 7.84333e-06 0)
(0.00376859 9.36074e-06 0)
(0.00376458 1.10203e-05 0)
(0.00375988 1.28443e-05 0)
(0.00375443 1.48616e-05 0)
(0.00374813 1.71021e-05 0)
(0.00374091 1.95972e-05 0)
(0.00373264 2.23783e-05 0)
(0.00372321 2.54907e-05 0)
(0.00371248 2.89753e-05 0)
(0.00370027 3.28794e-05 0)
(0.00368645 3.72464e-05 0)
(0.00367077 4.21502e-05 0)
(0.00365307 4.76253e-05 0)
(0.00363299 5.37801e-05 0)
(0.00361044 6.0622e-05 0)
(0.00358486 6.8321e-05 0)
(0.00355621 7.68314e-05 0)
(0.00352376 8.64122e-05 0)
(0.00348754 9.69126e-05 0)
(0.00344655 0.00010875 0)
(0.00340096 0.000121583 0)
(0.00334946 0.000136068 0)
(0.0032924 0.000151543 0)
(0.00322814 0.000169046 0)
(0.00315717 0.000187401 0)
(0.00307766 0.00020819 0)
(0.00299011 0.000229518 0)
(0.00289272 0.000253646 0)
(0.00278584 0.000277814 0)
(0.00266799 0.00030497 0)
(0.0025392 0.00033151 0)
(0.00239869 0.000360835 0)
(0.00224601 0.000388838 0)
(0.00208137 0.000418826 0)
(0.00190398 0.000446789 0)
(0.00171503 0.000475358 0)
(0.00151377 0.000501154 0)
(0.00130223 0.000525842 0)
(0.00108006 0.000546923 0)
(0.000849929 0.000565216 0)
(0.000612089 0.000579098 0)
(0.000369649 0.000588864 0)
(0.000123378 0.000593716 0)
(0.00378274 7.49412e-07 0)
(0.00378233 2.26024e-06 0)
(0.0037815 3.8081e-06 0)
(0.00378025 5.4112e-06 0)
(0.00377854 7.09479e-06 0)
(0.00377637 8.88911e-06 0)
(0.00377368 1.08199e-05 0)
(0.00377045 1.29128e-05 0)
(0.00376662 1.5204e-05 0)
(0.00376214 1.77206e-05 0)
(0.00375692 2.05067e-05 0)
(0.00375091 2.35978e-05 0)
(0.00374399 2.70416e-05 0)
(0.0037361 3.08856e-05 0)
(0.00372706 3.51868e-05 0)
(0.0037168 3.99981e-05 0)
(0.00370511 4.53949e-05 0)
(0.00369188 5.14303e-05 0)
(0.00367684 5.82114e-05 0)
(0.00365988 6.57881e-05 0)
(0.00364061 7.4299e-05 0)
(0.00361896 8.37746e-05 0)
(0.00359437 9.44324e-05 0)
(0.00356683 0.000106226 0)
(0.00353555 0.000119503 0)
(0.00350067 0.000134084 0)
(0.00346105 0.000150493 0)
(0.00341705 0.000168349 0)
(0.0033671 0.000188443 0)
(0.00331186 0.000210039 0)
(0.00324928 0.000234318 0)
(0.00318033 0.000260034 0)
(0.00310253 0.000288871 0)
(0.00301707 0.000318904 0)
(0.00292129 0.000352381 0)
(0.00281632 0.00038661 0)
(0.00269982 0.00042431 0)
(0.0025724 0.00046213 0)
(0.00243273 0.000502944 0)
(0.00228045 0.000543065 0)
(0.00211582 0.000585024 0)
(0.0019375 0.000625275 0)
(0.00174733 0.000665562 0)
(0.00154365 0.000702828 0)
(0.00132939 0.000737944 0)
(0.00110333 0.000768501 0)
(0.000869001 0.000794708 0)
(0.000626043 0.000814886 0)
(0.000378317 0.000828943 0)
(0.000126222 0.000836009 0)
(0.00378441 9.46634e-07 0)
(0.00378402 2.84956e-06 0)
(0.00378325 4.79651e-06 0)
(0.00378207 6.81706e-06 0)
(0.00378048 8.94247e-06 0)
(0.00377843 1.12038e-05 0)
(0.00377592 1.36354e-05 0)
(0.00377288 1.62791e-05 0)
(0.00376929 1.9163e-05 0)
(0.00376508 2.23413e-05 0)
(0.00376018 2.58548e-05 0)
(0.00375454 2.97541e-05 0)
(0.00374804 3.41046e-05 0)
(0.00374062 3.8958e-05 0)
(0.00373212 4.43887e-05 0)
(0.00372247 5.04639e-05 0)
(0.00371146 5.72849e-05 0)
(0.00369901 6.49173e-05 0)
(0.00368481 7.35017e-05 0)
(0.00366882 8.30851e-05 0)
(0.00365061 9.38708e-05 0)
(0.00363015 0.000105879 0)
(0.00360685 0.000119406 0)
(0.00358076 0.000134378 0)
(0.00355103 0.000151262 0)
(0.00351789 0.000169802 0)
(0.0034801 0.000190746 0)
(0.00343811 0.000213482 0)
(0.00339028 0.000239237 0)
(0.00333731 0.000266779 0)
(0.0032771 0.000298081 0)
(0.00321059 0.000330922 0)
(0.00313531 0.000368379 0)
(0.0030523 0.000406774 0)
(0.00295902 0.000450638 0)
(0.00285627 0.000494446 0)
(0.00274194 0.000544318 0)
(0.00261619 0.00059284 0)
(0.00247793 0.000647266 0)
(0.00232638 0.000699006 0)
(0.00216186 0.000755214 0)
(0.00198283 0.00080757 0)
(0.00179096 0.000861556 0)
(0.00158465 0.000910463 0)
(0.00136653 0.000957507 0)
(0.00113564 0.000997898 0)
(0.000895347 0.00103302 0)
(0.000645611 0.00105982 0)
(0.000390331 0.00107867 0)
(0.000130296 0.00108807 0)
(0.00378645 1.12827e-06 0)
(0.0037861 3.39591e-06 0)
(0.00378538 5.71424e-06 0)
(0.00378431 8.12483e-06 0)
(0.00378284 1.06581e-05 0)
(0.00378096 1.33542e-05 0)
(0.00377865 1.62551e-05 0)
(0.00377586 1.9401e-05 0)
(0.00377256 2.28441e-05 0)
(0.00376868 2.66364e-05 0)
(0.00376418 3.08282e-05 0)
(0.00375898 3.54835e-05 0)
(0.003753 4.06729e-05 0)
(0.00374616 4.6469e-05 0)
(0.00373833 5.29602e-05 0)
(0.00372943 6.02213e-05 0)
(0.00371926 6.83744e-05 0)
(0.00370775 7.75075e-05 0)
(0.00369462 8.77761e-05 0)
(0.00367983 9.92562e-05 0)
(0.00366293 0.000112184 0)
(0.00364396 0.000126586 0)
(0.00362227 0.000142819 0)
(0.00359802 0.000160815 0)
(0.00357023 0.000181106 0)
(0.00353933 0.000203445 0)
(0.00350381 0.000228664 0)
(0.00346453 0.000256152 0)
(0.00341928 0.00028722 0)
(0.00336948 0.000320665 0)
(0.00331208 0.000358497 0)
(0.00324916 0.000398611 0)
(0.0031768 0.000443955 0)
(0.00309762 0.000491192 0)
(0.00300714 0.000544395 0)
(0.00290805 0.000598767 0)
(0.00279617 0.000659409 0)
(0.0026732 0.000720187 0)
(0.00253669 0.000786669 0)
(0.00238614 0.000852047 0)
(0.00222212 0.000921268 0)
(0.00204162 0.000987902 0)
(0.00184808 0.00105522 0)
(0.0016376 0.00111787 0)
(0.001415 0.00117728 0)
(0.00117727 0.00122934 0)
(0.00092963 0.00127416 0)
(0.000670741 0.00130888 0)
(0.000405983 0.00133311 0)
(0.000135432 0.00134533 0)
(0.00378883 1.28956e-06 0)
(0.00378852 3.89072e-06 0)
(0.00378788 6.55067e-06 0)
(0.00378691 9.31064e-06 0)
(0.0037856 1.22153e-05 0)
(0.00378391 1.53054e-05 0)
(0.00378184 1.86313e-05 0)
(0.00377934 2.22418e-05 0)
(0.00377637 2.61941e-05 0)
(0.0037729 3.05404e-05 0)
(0.00376885 3.53538e-05 0)
(0.00376418 4.07014e-05 0)
(0.0037588 4.6661e-05 0)
(0.00375265 5.33195e-05 0)
(0.00374559 6.07779e-05 0)
(0.00373757 6.91315e-05 0)
(0.00372839 7.8515e-05 0)
(0.003718 8.90305e-05 0)
(0.00370612 0.000100863 0)
(0.00369272 0.000114102 0)
(0.00367737 0.000129026 0)
(0.00366015 0.000145663 0)
(0.00364036 0.000164446 0)
(0.00361825 0.000185276 0)
(0.00359278 0.000208833 0)
(0.00356445 0.000234755 0)
(0.00353171 0.000264149 0)
(0.00349545 0.000296132 0)
(0.00345346 0.00033255 0)
(0.00340711 0.00037156 0)
(0.00335342 0.000416257 0)
(0.00329427 0.000463145 0)
(0.00322596 0.000517273 0)
(0.00315065 0.000572588 0)
(0.00306435 0.000636921 0)
(0.00296888 0.000700695 0)
(0.00286083 0.000775084 0)
(0.0027408 0.000846614 0)
(0.00260704 0.000929249 0)
(0.00245817 0.00100684 0)
(0.00229489 0.0010935 0)
(0.002114 0.00117383 0)
(0.00191823 0.00125807 0)
(0.00170417 0.00133472 0)
(0.00147568 0.0014091 0)
(0.00123051 0.00147353 0)
(0.000973237 0.00152975 0)
(0.000703332 0.00157305 0)
(0.000426025 0.0016035 0)
(0.000142266 0.00161879 0)
(0.00379153 1.43594e-06 0)
(0.00379125 4.32949e-06 0)
(0.0037907 7.28888e-06 0)
(0.00378985 1.03611e-05 0)
(0.00378871 1.35921e-05 0)
(0.00378725 1.70322e-05 0)
(0.00378544 2.07318e-05 0)
(0.00378327 2.47554e-05 0)
(0.00378068 2.91551e-05 0)
(0.00377766 3.39985e-05 0)
(0.00377412 3.93627e-05 0)
(0.00377006 4.53233e-05 0)
(0.00376536 5.19712e-05 0)
(0.00375999 5.9398e-05 0)
(0.00375381 6.77254e-05 0)
(0.0037468 7.70532e-05 0)
(0.00373875 8.75427e-05 0)
(0.00372964 9.92999e-05 0)
(0.00371918 0.000112542 0)
(0.0037074 0.000127374 0)
(0.00369384 0.000144099 0)
(0.00367865 0.00016278 0)
(0.00366106 0.000183875 0)
(0.00364149 0.000207324 0)
(0.00361868 0.000233842 0)
(0.00359349 0.000263121 0)
(0.00356391 0.000296302 0)
(0.0035315 0.000332589 0)
(0.00349314 0.000373819 0)
(0.00345144 0.000418356 0)
(0.00340176 0.000469103 0)
(0.00334807 0.00052306 0)
(0.00328396 0.000584693 0)
(0.00321476 0.000648995 0)
(0.00313257 0.000722448 0)
(0.00304333 0.000797499 0)
(0.00293905 0.000882731 0)
(0.00282415 0.000968048 0)
(0.00269357 0.00106327 0)
(0.00254697 0.00115697 0)
(0.00238563 0.00125798 0)
(0.00220276 0.00135591 0)
(0.00200563 0.00145607 0)
(0.00178549 0.00155036 0)
(0.00155092 0.00164051 0)
(0.00129541 0.00172048 0)
(0.00102708 0.00178971 0)
(0.000742948 0.00184391 0)
(0.000450778 0.0018818 0)
(0.000150411 0.00190105 0)
(0.00379448 1.55837e-06 0)
(0.00379425 4.70302e-06 0)
(0.00379379 7.91825e-06 0)
(0.00379309 1.12559e-05 0)
(0.00379213 1.47678e-05 0)
(0.00379091 1.8507e-05 0)
(0.0037894 2.25311e-05 0)
(0.00378758 2.69011e-05 0)
(0.00378542 3.16865e-05 0)
(0.00378289 3.69578e-05 0)
(0.00377994 4.27942e-05 0)
(0.00377653 4.92844e-05 0)
(0.00377259 5.65254e-05 0)
(0.00376807 6.46187e-05 0)
(0.00376288 7.37e-05 0)
(0.00375697 8.38778e-05 0)
(0.00375017 9.53288e-05 0)
(0.00374248 0.000108175 0)
(0.00373361 0.000122658 0)
(0.00372362 0.000138893 0)
(0.00371204 0.000157227 0)
(0.00369909 0.000177723 0)
(0.00368398 0.000200907 0)
(0.00366718 0.000226703 0)
(0.00364742 0.00025596 0)
(0.00362561 0.000288271 0)
(0.00359973 0.000325064 0)
(0.00357136 0.000365247 0)
(0.00353743 0.000411291 0)
(0.0035004 0.00046077 0)
(0.00345594 0.000517993 0)
(0.00340745 0.000578112 0)
(0.00334927 0.000648549 0)
(0.00328554 0.000720329 0)
(0.00320976 0.000805782 0)
(0.00312583 0.000889628 0)
(0.00302782 0.000990945 0)
(0.00291758 0.00108644 0)
(0.00279203 0.00120206 0)
(0.00264882 0.00130803 0)
(0.00248967 0.00143198 0)
(0.00230795 0.00154593 0)
(0.00210862 0.00166803 0)
(0.00188476 0.00178033 0)
(0.00164225 0.00189025 0)
(0.0013766 0.00198709 0)
(0.00109409 0.00207186 0)
(0.000793498 0.00213814 0)
(0.000481973 0.00218472 0)
(0.000161111 0.00220837 0)
(0.00379765 1.65815e-06 0)
(0.00379747 5.00399e-06 0)
(0.00379711 8.42762e-06 0)
(0.00379656 1.19833e-05 0)
(0.00379581 1.57218e-05 0)
(0.00379485 1.97039e-05 0)
(0.00379366 2.39935e-05 0)
(0.00379223 2.8652e-05 0)
(0.00379053 3.37501e-05 0)
(0.00378853 3.93682e-05 0)
(0.00378619 4.55944e-05 0)
(0.0037835 5.25181e-05 0)
(0.00378038 6.02492e-05 0)
(0.0037768 6.88947e-05 0)
(0.00377267 7.85995e-05 0)
(0.00376798 8.94846e-05 0)
(0.00376254 0.00010174 0)
(0.0037564 0.000115502 0)
(0.00374926 0.000131028 0)
(0.00374125 0.000148455 0)
(0.00373186 0.000168144 0)
(0.00372142 0.0001902 0)
(0.00370902 0.000215167 0)
(0.0036954 0.00024302 0)
(0.00367897 0.000274618 0)
(0.00366116 0.000309656 0)
(0.00363929 0.000349525 0)
(0.00361593 0.000393351 0)
(0.00358667 0.000443428 0)
(0.00355592 0.000497808 0)
(0.00351666 0.000560283 0)
(0.00347591 0.00062704 0)
(0.00342322 0.000704217 0)
(0.00336872 0.000784999 0)
(0.00329835 0.000878939 0)
(0.00322464 0.000974901 0)
(0.00313176 0.00108664 0)
(0.00303088 0.00119804 0)
(0.00291054 0.00132622 0)
(0.0027721 0.001452 0)
(0.00261857 0.00159128 0)
(0.0024339 0.00172784 0)
(0.00223514 0.00186971 0)
(0.00200307 0.00200574 0)
(0.00175337 0.00213716 0)
(0.00147324 0.00225594 0)
(0.00117498 0.00235963 0)
(0.000853457 0.00244207 0)
(0.000519556 0.00249993 0)
(0.00017357 0.00252961 0)
(0.00380101 1.73544e-06 0)
(0.00380088 5.23493e-06 0)
(0.00380062 8.81409e-06 0)
(0.00380022 1.25319e-05 0)
(0.00379969 1.6443e-05 0)
(0.003799 2.06072e-05 0)
(0.00379816 2.50953e-05 0)
(0.00379714 2.99711e-05 0)
(0.00379592 3.5311e-05 0)
(0.00379449 4.1197e-05 0)
(0.00379281 4.77198e-05 0)
(0.00379088 5.49758e-05 0)
(0.00378862 6.30864e-05 0)
(0.00378604 7.21624e-05 0)
(0.00378304 8.23511e-05 0)
(0.00377963 9.37919e-05 0)
(0.00377564 0.000106677 0)
(0.00377116 0.000121162 0)
(0.00376587 0.000137522 0)
(0.00375996 0.000155905 0)
(0.00375292 0.000176704 0)
(0.00374513 0.000200032 0)
(0.00373569 0.000226485 0)
(0.00372539 0.000256036 0)
(0.00371266 0.000289658 0)
(0.00369896 0.000326976 0)
(0.00368168 0.000369638 0)
(0.0036633 0.000416514 0)
(0.00363971 0.000470517 0)
(0.00361483 0.000528938 0)
(0.00358248 0.000597065 0)
(0.00354838 0.000669046 0)
(0.00350394 0.000754559 0)
(0.00345661 0.000841821 0)
(0.0033957 0.000948328 0)
(0.0033292 0.0010518 0)
(0.00324632 0.00118255 0)
(0.00315217 0.0013021 0)
(0.0030407 0.0014576 0)
(0.00290836 0.0015933 0)
(0.00275978 0.00176528 0)
(0.00258058 0.00192145 0)
(0.00238072 0.0020919 0)
(0.00214665 0.00225275 0)
(0.00188724 0.00241093 0)
(0.00159444 0.0025545 0)
(0.00127634 0.00268045 0)
(0.000930878 0.00278119 0)
(0.000567698 0.00285198 0)
(0.000190167 0.00288845 0)
(0.00380448 1.78361e-06 0)
(0.00380441 5.38394e-06 0)
(0.00380426 9.06898e-06 0)
(0.00380403 1.2891e-05 0)
(0.00380372 1.69165e-05 0)
(0.00380332 2.12052e-05 0)
(0.00380283 2.58227e-05 0)
(0.00380223 3.0841e-05 0)
(0.00380152 3.63416e-05 0)
(0.00380068 4.24092e-05 0)
(0.00379969 4.91334e-05 0)
(0.00379855 5.66192e-05 0)
(0.0037972 6.49885e-05 0)
(0.00379567 7.43568e-05 0)
(0.00379385 8.48828e-05 0)
(0.0037918 9.67108e-05 0)
(0.00378934 0.000110044 0)
(0.0037866 0.000125052 0)
(0.00378328 0.000142009 0)
(0.00377962 0.000161091 0)
(0.00377506 0.000182704 0)
(0.00377016 0.000206992 0)
(0.00376386 0.000234553 0)
(0.00375725 0.000265444 0)
(0.00374843 0.000300592 0)
(0.00373947 0.000339795 0)
(0.00372695 0.000384571 0)
(0.00371471 0.000434143 0)
(0.00369676 0.000491076 0)
(0.00367983 0.000553419 0)
(0.00365385 0.000625576 0)
(0.00363012 0.00070334 0)
(0.00359239 0.000794324 0)
(0.00355845 0.000890186 0)
(0.00350396 0.00100391 0)
(0.00345398 0.00112017 0)
(0.00337684 0.00126005 0)
(0.00330019 0.00139818 0)
(0.00319567 0.00156472 0)
(0.00307336 0.00172568 0)
(0.00293988 0.00191159 0)
(0.00275371 0.00209728 0)
(0.00255953 0.00229345 0)
(0.00231546 0.00248702 0)
(0.00204883 0.00267638 0)
(0.00173714 0.0028522 0)
(0.00139695 0.00300775 0)
(0.00102141 0.00313415 0)
(0.000624579 0.0032236 0)
(0.00020928 0.00327004 0)
(0.00380803 1.80775e-06 0)
(0.003808 5.45177e-06 0)
(0.00380797 9.18215e-06 0)
(0.00380791 1.30579e-05 0)
(0.00380783 1.71356e-05 0)
(0.00380773 2.14815e-05 0)
(0.0038076 2.61625e-05 0)
(0.00380744 3.12521e-05 0)
(0.00380724 3.6829e-05 0)
(0.00380701 4.29823e-05 0)
(0.00380673 4.9812e-05 0)
(0.0038064 5.74135e-05 0)
(0.00380599 6.59146e-05 0)
(0.00380552 7.54397e-05 0)
(0.00380493 8.61501e-05 0)
(0.00380427 9.81933e-05 0)
(0.00380339 0.00011178 0)
(0.00380246 0.000127087 0)
(0.00380116 0.0001444 0)
(0.00379981 0.000163914 0)
(0.00379786 0.000186033 0)
(0.0037959 0.000210937 0)
(0.00379292 0.000239243 0)
(0.00379005 0.000271031 0)
(0.00378547 0.000307281 0)
(0.00378119 0.000347802 0)
(0.00377407 0.000394244 0)
(0.00376759 0.000445755 0)
(0.0037565 0.000505261 0)
(0.00374653 0.000570422 0)
(0.00372927 0.000646675 0)
(0.00371361 0.000728411 0)
(0.00368689 0.000826153 0)
(0.00366184 0.000927239 0)
(0.0036209 0.00105267 0)
(0.00358001 0.00117472 0)
(0.00351854 0.00133587 0)
(0.0034505 0.00147775 0)
(0.00336138 0.00168291 0)
(0.00324801 0.00184248 0)
(0.00312363 0.00208128 0)
(0.00295449 0.00229408 0)
(0.00276235 0.00252378 0)
(0.0025216 0.00275407 0)
(0.00224481 0.0029798 0)
(0.00191891 0.00319461 0)
(0.00155243 0.00338369 0)
(0.00114224 0.00353943 0)
(0.000700753 0.00364935 0)
(0.00023563 0.00370694 0)
(0.00381159 1.80684e-06 0)
(0.00381163 5.44206e-06 0)
(0.0038117 9.16091e-06 0)
(0.00381181 1.30244e-05 0)
(0.00381197 1.70932e-05 0)
(0.00381216 2.14324e-05 0)
(0.0038124 2.61059e-05 0)
(0.00381268 3.11876e-05 0)
(0.00381301 3.67608e-05 0)
(0.00381339 4.29099e-05 0)
(0.00381382 4.97355e-05 0)
(0.00381432 5.73399e-05 0)
(0.00381485 6.58495e-05 0)
(0.00381548 7.53903e-05 0)
(0.00381613 8.6118e-05 0)
(0.00381689 9.81989e-05 0)
(0.00381763 0.000111833 0)
(0.00381854 0.000127211 0)
(0.00381934 0.000144622 0)
(0.00382038 0.000164275 0)
(0.00382111 0.000186574 0)
(0.00382226 0.00021174 0)
(0.0038227 0.000240355 0)
(0.00382388 0.000272604 0)
(0.0038236 0.00030939 0)
(0.00382463 0.000350723 0)
(0.00382287 0.00039806 0)
(0.00382342 0.000450984 0)
(0.00381882 0.000511954 0)
(0.00381829 0.000579553 0)
(0.00380854 0.00065814 0)
(0.00380586 0.000744086 0)
(0.00378708 0.000845429 0)
(0.00378026 0.000953784 0)
(0.00374629 0.00108448 0)
(0.00373128 0.00121908 0)
(0.00367356 0.00138719 0)
(0.00364 0.00155049 0)
(0.00355281 0.00176294 0)
(0.00346344 0.00195673 0)
(0.00338207 0.00219833 0)
(0.003187 0.00244853 0)
(0.00300993 0.00271565 0)
(0.00276198 0.002991 0)
(0.0024802 0.00326424 0)
(0.00213263 0.00352732 0)
(0.00173459 0.0037658 0)
(0.00128153 0.00396555 0)
(0.000788588 0.0041091 0)
(0.000265669 0.0041847 0)
(0.00381512 1.77174e-06 0)
(0.00381521 5.34286e-06 0)
(0.0038154 8.99927e-06 0)
(0.00381568 1.27969e-05 0)
(0.00381606 1.67955e-05 0)
(0.00381655 2.10597e-05 0)
(0.00381715 2.56529e-05 0)
(0.00381787 3.06534e-05 0)
(0.00381872 3.61358e-05 0)
(0.00381971 4.21875e-05 0)
(0.00382086 4.89065e-05 0)
(0.00382217 5.63966e-05 0)
(0.00382366 6.47828e-05 0)
(0.00382537 7.41899e-05 0)
(0.00382726 8.47785e-05 0)
(0.00382944 9.67051e-05 0)
(0.0038318 0.000110182 0)
(0.00383456 0.0001254 0)
(0.00383745 0.000142641 0)
(0.00384089 0.000162135 0)
(0.00384433 0.000184268 0)
(0.00384857 0.000209302 0)
(0.00385253 0.000237802 0)
(0.00385765 0.000270012 0)
(0.00386196 0.000306791 0)
(0.00386801 0.000348283 0)
(0.00387224 0.000395849 0)
(0.00387911 0.000449314 0)
(0.00388239 0.000510977 0)
(0.00388966 0.000579817 0)
(0.00389037 0.000659978 0)
(0.003897 0.000748353 0)
(0.00389222 0.000852997 0)
(0.00389591 0.000965535 0)
(0.00388066 0.0011033 0)
(0.0038764 0.00124354 0)
(0.00384304 0.0014291 0)
(0.00381841 0.00159283 0)
(0.00375916 0.00186077 0)
(0.00367433 0.00200677 0)
(0.00360517 0.00235581 0)
(0.00346102 0.00265929 0)
(0.00329351 0.00294335 0)
(0.00305875 0.00327511 0)
(0.00276995 0.00359949 0)
(0.00241001 0.00392772 0)
(0.00198152 0.0042204 0)
(0.00147838 0.00446864 0)
(0.000915339 0.00464688 0)
(0.000309659 0.00474186 0)
(0.00381856 1.71157e-06 0)
(0.0038187 5.16749e-06 0)
(0.003819 8.70292e-06 0)
(0.00381945 1.23736e-05 0)
(0.00382005 1.62411e-05 0)
(0.00382084 2.0364e-05 0)
(0.00382179 2.48116e-05 0)
(0.00382294 2.96498e-05 0)
(0.0038243 3.49594e-05 0)
(0.00382589 4.08199e-05 0)
(0.00382774 4.73287e-05 0)
(0.00382986 5.45921e-05 0)
(0.00383228 6.27242e-05 0)
(0.00383506 7.1857e-05 0)
(0.00383818 8.21391e-05 0)
(0.00384177 9.3733e-05 0)
(0.00384573 0.000106838 0)
(0.00385033 0.000121655 0)
(0.0038553 0.000138454 0)
(0.00386114 0.000157484 0)
(0.0038673 0.000179107 0)
(0.00387468 0.000203617 0)
(0.00388214 0.000231543 0)
(0.00389143 0.00026321 0)
(0.00390024 0.000299386 0)
(0.00391183 0.000340397 0)
(0.00392179 0.000387413 0)
(0.00393615 0.000440629 0)
(0.0039466 0.000501949 0)
(0.0039642 0.000571119 0)
(0.00397357 0.000651426 0)
(0.00399486 0.000741372 0)
(0.00399973 0.00084714 0)
(0.00402534 0.000963817 0)
(0.00401851 0.00110441 0)
(0.00405029 0.00125416 0)
(0.00401557 0.00144492 0)
(0.00406268 0.00163043 0)
(0.00395813 0.00190448 0)
(0.00406731 0.00210582 0)
(0.00393577 0.00238127 0)
(0.00366061 0.00244443 0)
(0.00355419 0.00278007 0)
(0.00337213 0.00316094 0)
(0.00312386 0.00354998 0)
(0.00278389 0.00395133 0)
(0.00234535 0.00434358 0)
(0.00181343 0.00470364 0)
(0.00120239 0.00499303 0)
(0.000531111 0.00518482 0)
(0.00382185 1.62845e-06 0)
(0.00382205 4.91251e-06 0)
(0.00382245 8.27117e-06 0)
(0.00382306 1.17615e-05 0)
(0.00382389 1.54369e-05 0)
(0.00382494 1.9358e-05 0)
(0.00382624 2.35896e-05 0)
(0.00382781 2.81923e-05 0)
(0.00382966 3.32474e-05 0)
(0.00383183 3.88264e-05 0)
(0.00383434 4.50256e-05 0)
(0.00383725 5.1946e-05 0)
(0.00384056 5.96983e-05 0)
(0.00384438 6.84082e-05 0)
(0.00384868 7.82206e-05 0)
(0.00385363 8.92984e-05 0)
(0.00385915 0.000101826 0)
(0.00386552 0.000116006 0)
(0.00387253 0.000132093 0)
(0.00388069 0.000150343 0)
(0.00388951 0.000171097 0)
(0.00389991 0.000194679 0)
(0.00391088 0.000221555 0)
(0.00392408 0.000252145 0)
(0.00393753 0.000287079 0)
(0.0039542 0.000326907 0)
(0.00397038 0.000372494 0)
(0.00399126 0.000424554 0)
(0.00401016 0.000484275 0)
(0.00403603 0.000552642 0)
(0.00405709 0.000631199 0)
(0.00408864 0.000721461 0)
(0.00411003 0.000825153 0)
(0.00414781 0.000945114 0)
(0.00416495 0.00108204 0)
(0.00420982 0.00124312 0)
(0.00421147 0.00142203 0)
(0.0042684 0.00164354 0)
(0.00422465 0.00186499 0)
(0.0043246 0.00219274 0)
(0.0043529 0.00242771 0)
(0.00399733 0.00260566 0)
(0.00391971 0.00299947 0)
(0.00377154 0.00343662 0)
(0.00354172 0.00390133 0)
(0.00320999 0.00437539 0)
(0.00273029 0.00486826 0)
(0.00213524 0.00532529 0)
(0.00142903 0.00569432 0)
(0.000634258 0.00593091 0)
(0.00382496 1.51763e-06 0)
(0.00382521 4.5779e-06 0)
(0.00382571 7.71158e-06 0)
(0.00382647 1.09684e-05 0)
(0.0038275 1.44009e-05 0)
(0.00382882 1.80585e-05 0)
(0.00383044 2.20046e-05 0)
(0.0038324 2.63032e-05 0)
(0.00383471 3.10216e-05 0)
(0.00383743 3.62337e-05 0)
(0.00384058 4.20275e-05 0)
(0.00384423 4.84987e-05 0)
(0.00384839 5.57462e-05 0)
(0.0038532 6.38978e-05 0)
(0.00385862 7.30875e-05 0)
(0.00386488 8.34678e-05 0)
(0.00387188 9.52116e-05 0)
(0.00387996 0.000108525 0)
(0.00388892 0.000123636 0)
(0.00389933 0.000140803 0)
(0.00391071 0.000160342 0)
(0.00392409 0.000182593 0)
(0.00393841 0.000207972 0)
(0.00395559 0.000236942 0)
(0.00397344 0.000270059 0)
(0.00399546 0.000307954 0)
(0.0040174 0.000351384 0)
(0.0040456 0.000401232 0)
(0.00407203 0.000458505 0)
(0.00410806 0.000524488 0)
(0.00413887 0.000600511 0)
(0.00418477 0.000688506 0)
(0.00421873 0.000790098 0)
(0.00427687 0.000908495 0)
(0.00431031 0.00104506 0)
(0.0043832 0.00120626 0)
(0.00440763 0.0013898 0)
(0.00449642 0.00161368 0)
(0.00449589 0.00185372 0)
(0.00459091 0.00218037 0)
(0.00475965 0.002422 0)
(0.00438008 0.00271797 0)
(0.00434778 0.00316417 0)
(0.00424525 0.00367254 0)
(0.00405481 0.00422964 0)
(0.00377737 0.004766 0)
(0.0032239 0.00541374 0)
(0.00256076 0.00602115 0)
(0.00173741 0.00651618 0)
(0.000775243 0.00683135 0)
(0.00382783 1.38406e-06 0)
(0.00382812 4.17719e-06 0)
(0.00382871 7.03838e-06 0)
(0.00382961 1.00073e-05 0)
(0.00383083 1.31375e-05 0)
(0.00383239 1.64818e-05 0)
(0.00383431 2.00835e-05 0)
(0.00383663 2.40069e-05 0)
(0.00383938 2.83155e-05 0)
(0.00384261 3.30786e-05 0)
(0.00384635 3.83755e-05 0)
(0.00385068 4.42925e-05 0)
(0.00385565 5.09226e-05 0)
(0.00386136 5.8384e-05 0)
(0.00386784 6.67983e-05 0)
(0.0038753 7.63063e-05 0)
(0.00388369 8.70755e-05 0)
(0.00389335 9.92951e-05 0)
(0.00390414 0.000113172 0)
(0.00391663 0.000128963 0)
(0.00393043 0.00014694 0)
(0.00394655 0.000167464 0)
(0.00396409 0.000190869 0)
(0.00398487 0.000217688 0)
(0.00400707 0.00024831 0)
(0.00403383 0.000283577 0)
(0.00406171 0.000323861 0)
(0.00409615 0.000370583 0)
(0.00413086 0.000423885 0)
(0.00417507 0.000486386 0)
(0.00421768 0.000557333 0)
(0.00427427 0.000641958 0)
(0.00432544 0.000736935 0)
(0.00439747 0.000853349 0)
(0.00445652 0.000980967 0)
(0.00454737 0.00114454 0)
(0.0046104 0.00131577 0)
(0.00472265 0.00155202 0)
(0.00477952 0.00177924 0)
(0.00490775 0.00213115 0)
(0.00514831 0.00236446 0)
(0.0048039 0.00276199 0)
(0.00483721 0.00325925 0)
(0.00479846 0.00385168 0)
(0.00464853 0.00456701 0)
(0.00441987 0.00544583 0)
(0.00390785 0.00628189 0)
(0.00312922 0.00707964 0)
(0.00207557 0.00775104 0)
(0.00079499 0.00816415 0)
(0.00383041 1.23202e-06 0)
(0.00383074 3.71443e-06 0)
(0.00383142 6.25324e-06 0)
(0.00383244 8.89392e-06 0)
(0.00383383 1.16755e-05 0)
(0.00383561 1.46454e-05 0)
(0.00383781 1.78501e-05 0)
(0.00384046 2.13394e-05 0)
(0.0038436 2.51733e-05 0)
(0.00384728 2.94108e-05 0)
(0.00385156 3.41241e-05 0)
(0.00385652 3.93915e-05 0)
(0.0038622 4.52985e-05 0)
(0.00386874 5.19502e-05 0)
(0.00387618 5.94491e-05 0)
(0.00388474 6.7935e-05 0)
(0.00389439 7.75494e-05 0)
(0.00390551 8.84668e-05 0)
(0.00391797 0.000100874 0)
(0.0039324 0.000115007 0)
(0.0039484 0.00013111 0)
(0.0039671 0.000149528 0)
(0.00398759 0.000170552 0)
(0.00401183 0.00019469 0)
(0.00403796 0.000222293 0)
(0.00406944 0.000254164 0)
(0.0041026 0.000290646 0)
(0.00414354 0.000333077 0)
(0.00418541 0.000381668 0)
(0.00423873 0.00043877 0)
(0.0042912 0.000504057 0)
(0.00436063 0.000581934 0)
(0.00442572 0.000670502 0)
(0.00451583 0.000778554 0)
(0.00459543 0.000899896 0)
(0.00471102 0.00105316 0)
(0.00480662 0.00122074 0)
(0.00495023 0.00144434 0)
(0.00506296 0.00167674 0)
(0.00522684 0.00201375 0)
(0.00554176 0.00223886 0)
(0.005267 0.00272133 0)
(0.00538875 0.00325595 0)
(0.00545188 0.00390721 0)
(0.00541747 0.00468721 0)
(0.00536123 0.00581153 0)
(0.0049057 0.00689786 0)
(0.00407973 0.00802672 0)
(0.00281205 0.00904166 0)
(0.00113893 0.00969786 0)
(0.00383267 1.0585e-06 0)
(0.00383304 3.18951e-06 0)
(0.00383379 5.37442e-06 0)
(0.00383492 7.64427e-06 0)
(0.00383646 1.00349e-05 0)
(0.00383843 1.25845e-05 0)
(0.00384087 1.53375e-05 0)
(0.0038438 1.83409e-05 0)
(0.00384729 2.16365e-05 0)
(0.00385137 2.52824e-05 0)
(0.00385612 2.93373e-05 0)
(0.00386162 3.38713e-05 0)
(0.00386794 3.89592e-05 0)
(0.00387521 4.46855e-05 0)
(0.0038835 5.11482e-05 0)
(0.00389301 5.8466e-05 0)
(0.00390379 6.67551e-05 0)
(0.00391619 7.61817e-05 0)
(0.00393013 8.68913e-05 0)
(0.00394625 9.91168e-05 0)
(0.00396423 0.000113048 0)
(0.00398516 0.000129007 0)
(0.00400831 0.000147217 0)
(0.00403554 0.000168208 0)
(0.0040653 0.00019217 0)
(0.00410076 0.000219998 0)
(0.00413899 0.000251741 0)
(0.00418528 0.00028903 0)
(0.00423435 0.000331409 0)
(0.00429491 0.000382033 0)
(0.00435786 0.000439118 0)
(0.00443725 0.000509014 0)
(0.00451796 0.000586728 0)
(0.00462208 0.000685288 0)
(0.0047254 0.000792442 0)
(0.00486154 0.000934957 0)
(0.00499345 0.00108522 0)
(0.00516915 0.00129703 0)
(0.00533707 0.00151327 0)
(0.00555523 0.0018359 0)
(0.00592193 0.00203782 0)
(0.00575508 0.00258059 0)
(0.00598912 0.00313566 0)
(0.00619213 0.00383501 0)
(0.00632728 0.00471338 0)
(0.00649215 0.00601853 0)
(0.00621807 0.00743991 0)
(0.00543953 0.00905325 0)
(0.00393301 0.0106597 0)
(0.00166709 0.0118013 0)
(0.00383456 8.67819e-07 0)
(0.00383497 2.61736e-06 0)
(0.00383577 4.40888e-06 0)
(0.00383701 6.27192e-06 0)
(0.00383867 8.23735e-06 0)
(0.00384081 1.03319e-05 0)
(0.00384344 1.25914e-05 0)
(0.00384662 1.50561e-05 0)
(0.00385039 1.77626e-05 0)
(0.00385482 2.07582e-05 0)
(0.00385997 2.40907e-05 0)
(0.00386593 2.7817e-05 0)
(0.00387278 3.19994e-05 0)
(0.00388068 3.67082e-05 0)
(0.00388968 4.20265e-05 0)
(0.00390002 4.80489e-05 0)
(0.00391174 5.48768e-05 0)
(0.00392523 6.26452e-05 0)
(0.00394044 7.14773e-05 0)
(0.003958 8.15666e-05 0)
(0.00397767 9.30656e-05 0)
(0.00400056 0.000106262 0)
(0.00402597 0.000121332 0)
(0.00405585 0.000138722 0)
(0.00408867 0.000158609 0)
(0.00412777 0.000181731 0)
(0.00417019 0.00020818 0)
(0.00422155 0.000239264 0)
(0.00427648 0.000274781 0)
(0.0043442 0.000317151 0)
(0.00441554 0.000365379 0)
(0.00450516 0.000424161 0)
(0.00459832 0.000490573 0)
(0.00471725 0.000573957 0)
(0.0048399 0.000666991 0)
(0.0049977 0.000788561 0)
(0.00516116 0.000921856 0)
(0.00536937 0.00110485 0)
(0.00559061 0.00130208 0)
(0.0058614 0.0015869 0)
(0.00627475 0.00175075 0)
(0.00624653 0.00232663 0)
(0.00661221 0.0028731 0)
(0.00699126 0.00358787 0)
(0.00735787 0.00453246 0)