/*--------------------------------*- C++ -*----------------------------------*\
| =========                 |                                                 |
| \\      /  F ield         | foam-extend: Open Source CFD                    |
|  \\    /   O peration     | Version:     4.0                                |
|   \\  /    A nd           | Web:         http://www.foam-extend.org         |
|    \\/     M anipulation  |                                                 |
\*---------------------------------------------------------------------------*/
FoamFile
{
    version     2.0;
    format      ascii;
    class       regIOobject;
    location    "0.0016/uniform";
    object      profilingInfo;
}
// * * * * * * * * * * * * * * * * * * * * * * * * * * * * * * * * * * * * * //

profilingInfo
(

    {
        id              18;
        parentId        16;
        description     "Foam::Time::writeObject - outputTime";
        calls           4;
        totalTime       0.585355;
        childTime       0;
        onStack         1;
    }

    {
        id              16;
        parentId        1;
        description     "Foam::Time::writeObject";
        calls           66;
        totalTime       0.585693;
        childTime       0.585355;
        onStack         1;
    }

    {
        id              1;
        description     "application::main";
        calls           1;
        totalTime       8.69745;
        childTime       3.85424;
        onStack         1;
    }

    {
        id              6;
        parentId        5;
        description     "functionObjectList::read";
        calls           1;
        totalTime       2e-06;
        childTime       0;
        onStack         0;
    }

    {
        id              17;
        parentId        1;
        description     "functionObjects_.execute()";
        calls           65;
        totalTime       0.000218;
        childTime       0;
        onStack         0;
    }

    {
        id              5;
        parentId        1;
        description     "functionObjects_.start()";
        calls           1;
        totalTime       6e-06;
        childTime       2e-06;
        onStack         0;
    }

    {
        id              7;
        parentId        1;
        description     "fvMatrix::solve_alpha1";
        calls           66;
        totalTime       0.097484;
        childTime       0.080434;
        onStack         0;
    }

    {
        id              14;
        parentId        1;
        description     "fvMatrix::solve_k";
        calls           66;
        totalTime       0.489913;
        childTime       0.474179;
        onStack         0;
    }

    {
        id              12;
        parentId        1;
        description     "fvMatrix::solve_omega";
        calls           66;
        totalTime       0.411056;
        childTime       0.375517;
        onStack         0;
    }

    {
        id              2;
        parentId        1;
        description     "fvMatrix::solve_pcorr";
        calls           1;
        totalTime       0.104332;
        childTime       0.104079;
        onStack         0;
    }

    {
        id              9;
        parentId        1;
        description     "fvMatrix::solve_pd";
        calls           66;
        totalTime       2.16554;
        childTime       2.15143;
        onStack         0;
    }

    {
        id              8;
        parentId        7;
        description     "lduMatrix::solver_alpha1";
        calls           66;
        totalTime       0.080434;
        childTime       0;
        onStack         0;
    }

    {
        id              4;
        parentId        3;
        description     "lduMatrix::solver_coarsestLevelCorr";
        calls           20;
        totalTime       0.006224;
        childTime       0;
        onStack         0;
    }

    {
        id              11;
        parentId        10;
        description     "lduMatrix::solver_coarsestLevelCorr";
        calls           383;
        totalTime       0.124614;
        childTime       0;
        onStack         0;
    }

    {
        id              15;
        parentId        14;
        description     "lduMatrix::solver_k";
        calls           66;
        totalTime       0.474179;
        childTime       0;
        onStack         0;
    }

    {
        id              13;
        parentId        12;
        description     "lduMatrix::solver_omega";
        calls           66;
        totalTime       0.375517;
        childTime       0;
        onStack         0;
    }

    {
        id              3;
        parentId        2;
        description     "lduMatrix::solver_pcorr";
        calls           1;
        totalTime       0.104079;
        childTime       0.006224;
        onStack         0;
    }

    {
        id              10;
        parentId        9;
        description     "lduMatrix::solver_pd";
        calls           66;
        totalTime       2.15143;
        childTime       0.124614;
        onStack         0;
    }
);


// ************************************************************************* //
