/*--------------------------------*- C++ -*----------------------------------*\
| =========                 |                                                 |
| \\      /  F ield         | foam-extend: Open Source CFD                    |
|  \\    /   O peration     | Version:     4.0                                |
|   \\  /    A nd           | Web:         http://www.foam-extend.org         |
|    \\/     M anipulation  |                                                 |
\*---------------------------------------------------------------------------*/
FoamFile
{
    version     2.0;
    format      ascii;
    class       regIOobject;
    location    "5e-05/uniform";
    object      profilingInfo;
}
// * * * * * * * * * * * * * * * * * * * * * * * * * * * * * * * * * * * * * //

profilingInfo
(

    {
        id              19;
        parentId        16;
        description     "Foam::Time::writeObject - outputTime";
        calls           4;
        totalTime       0.705912;
        childTime       0;
        onStack         1;
    }

    {
        id              16;
        parentId        1;
        description     "Foam::Time::writeObject";
        calls           947;
        totalTime       0.710147;
        childTime       0.705912;
        onStack         1;
    }

    {
        id              1;
        description     "application::main";
        calls           1;
        totalTime       121.065;
        childTime       53.7009;
        onStack         1;
    }

    {
        id              6;
        parentId        5;
        description     "functionObjectList::read";
        calls           1;
        totalTime       1e-06;
        childTime       0;
        onStack         0;
    }

    {
        id              18;
        parentId        1;
        description     "functionObjectList::read";
        calls           1;
        totalTime       4e-06;
        childTime       0;
        onStack         0;
    }

    {
        id              17;
        parentId        1;
        description     "functionObjects_.execute()";
        calls           946;
        totalTime       0.003963;
        childTime       0;
        onStack         0;
    }

    {
        id              5;
        parentId        1;
        description     "functionObjects_.start()";
        calls           1;
        totalTime       8e-06;
        childTime       1e-06;
        onStack         0;
    }

    {
        id              7;
        parentId        1;
        description     "fvMatrix::solve_alpha1";
        calls           947;
        totalTime       1.26401;
        childTime       1.03339;
        onStack         0;
    }

    {
        id              14;
        parentId        1;
        description     "fvMatrix::solve_k";
        calls           947;
        totalTime       6.18602;
        childTime       5.8975;
        onStack         0;
    }

    {
        id              12;
        parentId        1;
        description     "fvMatrix::solve_omega";
        calls           947;
        totalTime       3.95068;
        childTime       3.43007;
        onStack         0;
    }

    {
        id              2;
        parentId        1;
        description     "fvMatrix::solve_pcorr";
        calls           1;
        totalTime       0.145534;
        childTime       0.145307;
        onStack         0;
    }

    {
        id              9;
        parentId        1;
        description     "fvMatrix::solve_pd";
        calls           947;
        totalTime       41.4405;
        childTime       41.2318;
        onStack         0;
    }

    {
        id              8;
        parentId        7;
        description     "lduMatrix::solver_alpha1";
        calls           947;
        totalTime       1.03339;
        childTime       0;
        onStack         0;
    }

    {
        id              4;
        parentId        3;
        description     "lduMatrix::solver_coarsestLevelCorr";
        calls           31;
        totalTime       0.009667;
        childTime       0;
        onStack         0;
    }

    {
        id              11;
        parentId        10;
        description     "lduMatrix::solver_coarsestLevelCorr";
        calls           7716;
        totalTime       2.68407;
        childTime       0;
        onStack         0;
    }

    {
        id              15;
        parentId        14;
        description     "lduMatrix::solver_k";
        calls           947;
        totalTime       5.8975;
        childTime       0;
        onStack         0;
    }

    {
        id              13;
        parentId        12;
        description     "lduMatrix::solver_omega";
        calls           947;
        totalTime       3.43007;
        childTime       0;
        onStack         0;
    }

    {
        id              3;
        parentId        2;
        description     "lduMatrix::solver_pcorr";
        calls           1;
        totalTime       0.145307;
        childTime       0.009667;
        onStack         0;
    }

    {
        id              10;
        parentId        9;
        description     "lduMatrix::solver_pd";
        calls           947;
        totalTime       41.2318;
        childTime       2.68407;
        onStack         0;
    }
);


// ************************************************************************* //
