/*--------------------------------*- C++ -*----------------------------------*\
| =========                 |                                                 |
| \\      /  F ield         | foam-extend: Open Source CFD                    |
|  \\    /   O peration     | Version:     4.0                                |
|   \\  /    A nd           | Web:         http://www.foam-extend.org         |
|    \\/     M anipulation  |                                                 |
\*---------------------------------------------------------------------------*/
FoamFile
{
    version     2.0;
    format      ascii;
    class       regIOobject;
    location    "0.0008/uniform";
    object      profilingInfo;
}
// * * * * * * * * * * * * * * * * * * * * * * * * * * * * * * * * * * * * * //

profilingInfo
(

    {
        id              17;
        parentId        15;
        description     "Foam::Time::writeObject - outputTime";
        calls           8;
        totalTime       1.1429;
        childTime       0;
        onStack         1;
    }

    {
        id              15;
        parentId        1;
        description     "Foam::Time::writeObject";
        calls           83;
        totalTime       1.1433;
        childTime       1.1429;
        onStack         1;
    }

    {
        id              1;
        description     "application::main";
        calls           1;
        totalTime       11.7766;
        childTime       5.88926;
        onStack         1;
    }

    {
        id              5;
        parentId        4;
        description     "functionObjectList::read";
        calls           1;
        totalTime       2e-06;
        childTime       0;
        onStack         0;
    }

    {
        id              16;
        parentId        1;
        description     "functionObjects_.execute()";
        calls           82;
        totalTime       0.00026;
        childTime       0;
        onStack         0;
    }

    {
        id              4;
        parentId        1;
        description     "functionObjects_.start()";
        calls           1;
        totalTime       8e-06;
        childTime       2e-06;
        onStack         0;
    }

    {
        id              6;
        parentId        1;
        description     "fvMatrix::solve_alpha1";
        calls           83;
        totalTime       0.137497;
        childTime       0.112557;
        onStack         0;
    }

    {
        id              13;
        parentId        1;
        description     "fvMatrix::solve_k";
        calls           83;
        totalTime       0.680384;
        childTime       0.657966;
        onStack         0;
    }

    {
        id              11;
        parentId        1;
        description     "fvMatrix::solve_omega";
        calls           83;
        totalTime       0.681416;
        childTime       0.634716;
        onStack         0;
    }

    {
        id              2;
        parentId        1;
        description     "fvMatrix::solve_pcorr";
        calls           1;
        totalTime       0.006152;
        childTime       0.005833;
        onStack         0;
    }

    {
        id              8;
        parentId        1;
        description     "fvMatrix::solve_pd";
        calls           83;
        totalTime       3.24024;
        childTime       3.22338;
        onStack         0;
    }

    {
        id              7;
        parentId        6;
        description     "lduMatrix::solver_alpha1";
        calls           83;
        totalTime       0.112557;
        childTime       0;
        onStack         0;
    }

    {
        id              10;
        parentId        9;
        description     "lduMatrix::solver_coarsestLevelCorr";
        calls           596;
        totalTime       0.192374;
        childTime       0;
        onStack         0;
    }

    {
        id              14;
        parentId        13;
        description     "lduMatrix::solver_k";
        calls           83;
        totalTime       0.657966;
        childTime       0;
        onStack         0;
    }

    {
        id              12;
        parentId        11;
        description     "lduMatrix::solver_omega";
        calls           83;
        totalTime       0.634716;
        childTime       0;
        onStack         0;
    }

    {
        id              3;
        parentId        2;
        description     "lduMatrix::solver_pcorr";
        calls           1;
        totalTime       0.005833;
        childTime       0;
        onStack         0;
    }

    {
        id              9;
        parentId        8;
        description     "lduMatrix::solver_pd";
        calls           83;
        totalTime       3.22338;
        childTime       0.192374;
        onStack         0;
    }
);


// ************************************************************************* //
