/*--------------------------------*- C++ -*----------------------------------*\
| =========                 |                                                 |
| \\      /  F ield         | foam-extend: Open Source CFD                    |
|  \\    /   O peration     | Version:     4.0                                |
|   \\  /    A nd           | Web:         http://www.foam-extend.org         |
|    \\/     M anipulation  |                                                 |
\*---------------------------------------------------------------------------*/
FoamFile
{
    version     2.0;
    format      ascii;
    class       volScalarField;
    location    "3e-05";
    object      k;
}
// * * * * * * * * * * * * * * * * * * * * * * * * * * * * * * * * * * * * * //

dimensions      [0 2 -2 0 0 0 0];

internalField   nonuniform List<scalar> 
28770
(
0.00994615
0.00347602
0.00491336
0.00634038
0.0071632
0.00752649
0.0076546
0.00769043
0.00769635
0.00769475
0.00769055
0.00768512
0.00767876
0.0076716
0.00766335
0.00765411
0.00764352
0.00763172
0.00761822
0.00760327
0.00758621
0.00756741
0.00754602
0.00752259
0.007496
0.00746705
0.00743434
0.00739898
0.00735925
0.00731664
0.00726911
0.00721865
0.00716288
0.00710437
0.00704054
0.0069745
0.00690368
0.00683162
0.00675609
0.00668076
0.00660359
0.00652586
0.00643616
0.00629914
0.00600468
0.00532429
0.00398649
0.00209259
0.000520978
3.58437e-05
0.0635356
0.0914765
0.141577
0.182709
0.206338
0.216806
0.220503
0.221538
0.221709
0.221661
0.221537
0.221377
0.22119
0.22098
0.220738
0.220467
0.220155
0.219809
0.219412
0.218973
0.218472
0.217921
0.217292
0.216605
0.215823
0.214975
0.214014
0.212978
0.21181
0.210563
0.209166
0.207689
0.206051
0.20434
0.202466
0.200535
0.198458
0.196352
0.194138
0.191937
0.189677
0.187406
0.184779
0.180771
0.172158
0.152291
0.11333
0.0584381
0.0134973
0.000534375
0.202163
0.518807
0.843217
1.08843
1.22886
1.29151
1.31386
1.32022
1.32138
1.32118
1.32057
1.31975
1.31879
1.31771
1.31646
1.31507
1.31346
1.31168
1.30963
1.30737
1.30479
1.30194
1.2987
1.29515
1.2911
1.28671
1.28173
1.27636
1.27029
1.2638
1.25653
1.24882
1.24026
1.23129
1.22146
1.2113
1.20035
1.18921
1.17748
1.16578
1.15372
1.14143
1.12667
1.10245
1.04748
0.918322
0.666523
0.322514
0.0650261
0.00235903
0.402009
1.28593
2.17202
2.82968
3.20425
3.37223
3.43295
3.45075
3.45449
3.45438
3.45329
3.45171
3.44983
3.44772
3.44529
3.44256
3.43943
3.43595
3.43195
3.42753
3.42247
3.41689
3.41052
3.40355
3.3956
3.38695
3.37713
3.36651
3.3545
3.34163
3.32716
3.31179
3.29468
3.2767
3.25692
3.2364
3.21421
3.19156
3.16759
3.14357
3.11854
3.09224
3.05758
2.99201
2.82992
2.44283
1.70882
0.771873
0.144107
0.00511302
0.580843
2.01134
3.48977
4.60208
5.2409
5.53071
5.63743
5.66982
5.67756
5.67829
5.67743
5.6759
5.67403
5.67191
5.66948
5.66675
5.66363
5.66014
5.65614
5.65171
5.64664
5.64105
5.63467
5.62767
5.61969
5.61099
5.60111
5.5904
5.57829
5.56528
5.55064
5.53505
5.51766
5.49935
5.47916
5.45817
5.43538
5.41207
5.3873
5.36233
5.33582
5.3058
5.25831
5.14794
4.84946
4.12961
2.80423
1.20925
0.217556
0.00765316
0.701247
2.45658
4.30855
5.73192
6.56418
6.94864
7.09333
7.13868
7.15046
7.15259
7.15235
7.15149
7.15033
7.14901
7.14749
7.14579
7.14385
7.14168
7.13921
7.13646
7.13333
7.12988
7.12596
7.12165
7.11678
7.11145
7.10545
7.09894
7.09164
7.0838
7.07505
7.06577
7.05549
7.04473
7.03296
7.02082
7.00776
6.99452
6.98057
6.96651
6.95093
6.92954
6.88228
6.74378
6.34074
5.35924
3.57819
1.50527
0.266295
0.00933308
0.768313
2.66723
4.67515
6.24397
7.1801
7.61952
7.78784
7.8418
7.85647
7.8597
7.86004
7.85976
7.85926
7.85865
7.85798
7.85721
7.85636
7.8554
7.85433
7.85313
7.85181
7.85033
7.84871
7.84692
7.84495
7.84282
7.84049
7.838
7.83532
7.83251
7.82951
7.82646
7.82328
7.82016
7.81701
7.81407
7.81128
7.80884
7.80675
7.80485
7.80191
7.79168
7.75058
7.60142
7.14495
6.02234
3.99218
1.66224
0.292186
0.010226
0.798114
2.74902
4.80879
6.43041
7.40902
7.87323
8.05293
8.11126
8.12746
8.13128
8.13199
8.13198
8.13183
8.13162
8.1314
8.13114
8.13088
8.13058
8.13027
8.12992
8.12957
8.12918
8.12881
8.12841
8.12805
8.12769
8.12741
8.12718
8.1271
8.12715
8.12745
8.12803
8.129
8.13042
8.13246
8.13515
8.13874
8.14315
8.14873
8.1549
8.16071
8.15832
8.12329
7.9729
7.49732
6.3184
4.18313
1.73829
0.305223
0.0106791
0.80857
2.77609
4.85182
6.48789
7.48041
7.95424
8.13845
8.19856
8.21539
8.21946
8.22031
8.22043
8.22042
8.22037
8.22034
8.22029
8.22027
8.22024
8.22024
8.22025
8.2203
8.22037
8.22052
8.22071
8.22102
8.22142
8.22201
8.22276
8.2238
8.22513
8.22689
8.22911
8.23199
8.23555
8.24007
8.24555
8.25238
8.26039
8.27015
8.28084
8.29189
8.29487
8.26436
8.11716
7.63977
6.44728
4.277
1.78126
0.313229
0.0109617
0.811593
2.78389
4.86477
6.50283
7.49873
7.97628
8.16219
8.22296
8.24002
8.24418
8.24508
8.24524
8.24528
8.24529
8.24531
8.24534
8.2454
8.24546
8.24557
8.2457
8.24589
8.24612
8.24645
8.24685
8.2474
8.24807
8.24898
8.2501
8.25156
8.25339
8.25573
8.25864
8.26232
8.26687
8.27254
8.27941
8.28792
8.2979
8.31007
8.32352
8.33799
8.34519
8.31895
8.17774
7.70737
6.52037
4.34244
1.81663
0.320353
0.0112167
0.812341
2.78592
4.86861
6.50587
7.50209
7.9812
8.16786
8.22891
8.24605
8.25025
8.25116
8.25134
8.25139
8.25141
8.25145
8.2515
8.25158
8.25168
8.25182
8.25198
8.25222
8.2525
8.25288
8.25335
8.25397
8.25475
8.25576
8.25703
8.25865
8.2607
8.26329
8.26655
8.27063
8.27574
8.28207
8.28988
8.2995
8.31099
8.32509
8.34082
8.35885
8.37021
8.34874
8.2153
7.75639
6.58317
4.40728
1.85502
0.328396
0.0115065
0.812493
2.78642
4.86986
6.50607
7.50195
7.98183
8.16895
8.23016
8.24736
8.25157
8.25249
8.25267
8.25272
8.25275
8.2528
8.25285
8.25294
8.25304
8.25319
8.25337
8.25361
8.25391
8.25431
8.25481
8.25546
8.25628
8.25734
8.25869
8.2604
8.26258
8.26533
8.26884
8.27323
8.27881
8.28572
8.2944
8.3051
8.31812
8.33418
8.35231
8.3738
8.39008
8.37454
8.25136
7.80812
6.6545
4.48463
1.90221
0.338412
0.011868
0.812499
2.78651
4.87033
6.50572
7.50123
7.98157
8.16903
8.23037
8.2476
8.25183
8.25275
8.25293
8.25298
8.25302
8.25306
8.25312
8.25321
8.25332
8.25346
8.25365
8.2539
8.25421
8.25461
8.25514
8.2558
8.25666
8.25775
8.25916
8.26094
8.26324
8.26613
8.26989
8.27456
8.28061
8.28808
8.29773
8.30949
8.32436
8.34244
8.36332
8.39077
8.41336
8.40528
8.29492
7.87197
6.7447
4.5847
1.96473
0.351906
0.0123564
0.812463
2.78648
4.8705
6.50532
7.50053
7.98119
8.16892
8.23038
8.24765
8.25188
8.2528
8.25299
8.25304
8.25307
8.25312
8.25318
8.25326
8.25338
8.25352
8.25372
8.25396
8.25429
8.2547
8.25523
8.25591
8.2568
8.25792
8.25939
8.26125
8.26367
8.26672
8.27071
8.27571
8.28228
8.29043
8.30116
8.31435
8.33158
8.35254
8.37772
8.41008
8.43983
8.44354
8.35096
7.95817
6.86914
4.72469
2.0542
0.371572
0.0130495
0.812412
2.7864
4.87052
6.50496
7.49995
7.98084
8.1688
8.23037
8.24767
8.25192
8.25284
8.25303
8.25307
8.25311
8.25315
8.25322
8.2533
8.25342
8.25356
8.25376
8.25401
8.25434
8.25475
8.25531
8.256
8.25692
8.25808
8.25961
8.26153
8.26408
8.26729
8.27154
8.27688
8.284
8.29287
8.30488
8.31945
8.33985
8.36224
8.39409
8.43615
8.4772
8.49567
8.42886
8.08126
7.05359
4.93999
2.20168
0.40604
0.0135773
0.812351
2.78629
4.87047
6.50469
7.49947
7.98055
8.16873
8.2304
8.24773
8.25199
8.25291
8.2531
8.25315
8.25319
8.25323
8.25329
8.25337
8.2535
8.25364
8.25385
8.25409
8.25443
8.25485
8.25542
8.25613
8.25708
8.25827
8.25986
8.26186
8.26453
8.26791
8.27242
8.27814
8.2858
8.29549
8.30865
8.32501
8.34775
8.37392
8.41211
8.45419
8.49064
8.5353
8.53022
8.3251
7.56387
5.75545
3.03655
0.80442
0.0414829
0.81229
2.78617
4.87039
6.50461
7.49908
7.98033
8.16877
8.23053
8.2479
8.25217
8.25309
8.25329
8.25333
8.25337
8.25341
8.25348
8.25356
8.25368
8.25382
8.25404
8.25428
8.25463
8.25505
8.25564
8.25636
8.25734
8.25856
8.26021
8.26229
8.26508
8.26863
8.27338
8.27948
8.28767
8.29828
8.31252
8.33109
8.35576
8.38821
8.42986
8.48097
8.53031
8.59665
8.63302
8.50093
7.85266
6.15775
3.40562
0.940395
0.045042
0.812235
2.78608
4.87036
6.50477
7.49884
7.98023
8.16899
8.23087
8.24828
8.25256
8.25349
8.25369
8.25373
8.25377
8.25381
8.25388
8.25395
8.25408
8.25422
8.25444
8.25468
8.25504
8.25547
8.25607
8.2568
8.2578
8.25906
8.26076
8.26292
8.26581
8.26952
8.27449
8.28094
8.28965
8.30114
8.31665
8.33731
8.36493
8.4024
8.45111
8.51033
8.57653
8.671
8.75649
8.70816
8.19107
6.62009
3.81535
1.09726
0.0539055
0.812195
2.78603
4.87041
6.50518
7.49884
7.98038
8.1695
8.23153
8.24899
8.2533
8.25423
8.25443
8.25447
8.25451
8.25455
8.25462
8.25469
8.25482
8.25496
8.25518
8.25543
8.25579
8.25622
8.25683
8.25757
8.25861
8.25989
8.26165
8.26386
8.26684
8.27066
8.27577
8.28253
8.2917
8.30411
8.32092
8.34392
8.37482
8.41789
8.47554
8.54413
8.62784
8.75618
8.89943
8.9542
8.5563
6.9852
4.0189
1.11166
0.039608
0.812173
2.78605
4.87059
6.50582
7.49917
7.98081
8.17033
8.23256
8.25011
8.25445
8.25539
8.25559
8.25563
8.25567
8.25571
8.25578
8.25586
8.25599
8.25612
8.25635
8.25659
8.25697
8.2574
8.25802
8.25878
8.25984
8.26115
8.26294
8.26519
8.2682
8.27205
8.27722
8.28416
8.29377
8.30701
8.32525
8.3505
8.38521
8.43398
8.5019
8.58136
8.68571
8.85166
9.0581
9.22852
9.0587
7.7364
4.76092
1.43696
0.0550986
0.812169
2.78613
4.87089
6.50667
7.49985
7.9815
8.17138
8.23389
8.25157
8.25595
8.2569
8.25711
8.25714
8.25719
8.25722
8.2573
8.25737
8.25751
8.25764
8.25787
8.25812
8.2585
8.25893
8.25957
8.26034
8.26142
8.26275
8.26456
8.26681
8.26977
8.27354
8.27866
8.28574
8.29572
8.30979
8.32941
8.357
8.3955
8.45033
8.52884
8.62005
8.74866
8.95614
9.22779
9.49964
9.58063
8.65539
5.79872
1.93085
0.0792965
0.812178
2.78624
4.87126
6.50762
7.50073
7.9823
8.1725
8.23531
8.25314
8.25758
8.25854
8.25875
8.25879
8.25884
8.25887
8.25895
8.25902
8.25916
8.2593
8.25953
8.25978
8.26017
8.26061
8.26126
8.26204
8.26313
8.26447
8.26626
8.26844
8.27126
8.27487
8.27992
8.28709
8.29746
8.31227
8.33323
8.36296
8.40517
8.46592
8.55474
8.65794
8.81385
9.06425
9.3917
9.74773
10.0786
9.67178
7.28625
2.8115
0.130752
0.812193
2.78636
4.87163
6.50853
7.50163
7.98304
8.17351
8.23662
8.25459
8.25909
8.26006
8.26028
8.26032
8.26037
8.2604
8.26049
8.26056
8.2607
8.26084
8.26107
8.26132
8.26172
8.26217
8.26283
8.26361
8.26471
8.26603
8.26776
8.2698
8.27244
8.2759
8.28089
8.28818
8.29889
8.31438
8.33648
8.36817
8.41357
8.4798
8.57768
8.69174
8.87625
9.16594
9.53497
9.9654
10.5186
10.6728
9.35507
4.13486
0.462977
0.812207
2.78647
4.87194
6.50929
7.5024
7.98364
8.17431
8.23767
8.25577
8.26031
8.26129
8.26152
8.26156
8.26161
8.26164
8.26173
8.2618
8.26194
8.26208
8.26232
8.26257
8.26298
8.26343
8.2641
8.26488
8.26597
8.26724
8.26886
8.27074
8.27322
8.27656
8.28155
8.28895
8.29995
8.31596
8.33898
8.37218
8.42012
8.49074
8.5958
8.71857
8.92976
9.25133
9.65174
10.142
10.8593
11.5128
11.5565
7.85173
1.68023
0.81222
2.78655
4.87217
6.50986
7.50295
7.98403
8.17483
8.23837
8.25656
8.26113
8.26213
8.26236
8.2624
8.26245
8.26248
8.26257
8.26264
8.26278
8.26292
8.26317
8.26342
8.26383
8.26428
8.26496
8.26574
8.26681
8.26801
8.26953
8.27128
8.27367
8.27696
8.28194
8.28943
8.30062
8.31699
8.34059
8.3748
8.42434
8.49785
8.60752
8.73532
8.9681
9.30858
9.73302
10.2643
11.0769
12.0379
13.1747
13.8995
10.3096
0.812224
2.78658
4.87227
6.51011
7.50318
7.98415
8.17499
8.23862
8.25685
8.26144
8.26244
8.26267
8.26271
8.26276
8.2628
8.26288
8.26296
8.2631
8.26324
8.26349
8.26374
8.26415
8.2646
8.26528
8.26605
8.26711
8.26827
8.26975
8.27147
8.27382
8.27709
8.28208
8.28959
8.30085
8.31733
8.34114
8.37568
8.4258
8.50028
8.61162
8.73964
8.98606
9.33465
9.7702
10.3202
11.1616
12.2258
13.7336
15.6987
17.8219
0.81222
2.78655
4.87217
6.50986
7.50295
7.98403
8.17483
8.23837
8.25656
8.26113
8.26213
8.26236
8.2624
8.26245
8.26248
8.26257
8.26264
8.26278
8.26292
8.26317
8.26342
8.26383
8.26428
8.26496
8.26574
8.26681
8.26801
8.26953
8.27129
8.27368
8.27696
8.28195
8.28943
8.30062
8.31699
8.34059
8.3748
8.42434
8.49785
8.60752
8.73036
8.98011
9.32594
9.75782
10.3015
11.1118
12.1153
13.4103
14.3324
11.9609
0.812207
2.78647
4.87194
6.50929
7.5024
7.98364
8.17431
8.23767
8.25577
8.26031
8.26129
8.26152
8.26156
8.26161
8.26164
8.26173
8.2618
8.26194
8.26208
8.26232
8.26257
8.26298
8.26343
8.2641
8.26488
8.26598
8.26724
8.26888
8.27076
8.27324
8.27657
8.28155
8.28894
8.29995
8.31596
8.33898
8.37218
8.42012
8.49074
8.5958
8.70926
8.95142
9.28362
9.69752
10.2109
10.9267
11.6767
12.0444
9.83551
2.09151
0.812193
2.78636
4.87163
6.50853
7.50163
7.98304
8.17351
8.23662
8.25459
8.25909
8.26006
8.26028
8.26032
8.26037
8.2604
8.26049
8.26056
8.2607
8.26084
8.26107
8.26132
8.26172
8.26217
8.26283
8.26362
8.26472
8.26603
8.26777
8.26981
8.27245
8.2759
8.28089
8.28818
8.29888
8.31437
8.33648
8.36817
8.41357
8.4798
8.57768
8.67901
8.90481
9.21208
9.5975
10.0601
10.6146
10.9036
9.91757
5.58329
0.528113
0.812178
2.78624
4.87126
6.50762
7.50073
7.9823
8.1725
8.23531
8.25314
8.25758
8.25854
8.25875
8.25879
8.25884
8.25887
8.25895
8.25902
8.25916
8.2593
8.25953
8.25978
8.26017
8.26061
8.26126
8.26204
8.26313
8.26447
8.26626
8.26844
8.27127
8.27487
8.27992
8.28709
8.29746
8.31227
8.33323
8.36296
8.40517
8.46592
8.55474
8.64287
8.84587
9.11695
9.46651
9.86138
10.1956
9.92626
7.75402
3.13773
0.154323
0.812169
2.78613
4.87089
6.50667
7.49985
7.9815
8.17138
8.23389
8.25157
8.25595
8.2569
8.25711
8.25714
8.25719
8.25722
8.2573
8.25737
8.25751
8.25764
8.25787
8.25812
8.2585
8.25893
8.25957
8.26034
8.26142
8.26275
8.26456
8.26681
8.26977
8.27354
8.27866
8.28573
8.29572
8.30979
8.32941
8.357
8.3955
8.45033
8.52884
8.60384
8.78104
9.0103
9.31232
9.62747
9.70748
8.90613
6.12067
2.09869
0.0880854
0.812173
2.78605
4.87059
6.50582
7.49917
7.98081
8.17033
8.23256
8.25011
8.25445
8.25539
8.25559
8.25563
8.25567
8.25571
8.25578
8.25586
8.25599
8.25612
8.25635
8.25659
8.25697
8.2574
8.25802
8.25878
8.25984
8.26115
8.26294
8.26519
8.2682
8.27205
8.27722
8.28416
8.29377
8.30701
8.32524
8.3505
8.38521
8.43398
8.5019
8.56536
8.71607
8.90262
9.14249
9.3675
9.19185
7.95138
4.98638
1.53807
0.059847
0.812195
2.78603
4.87041
6.50518
7.49884
7.98038
8.1695
8.23153
8.24899
8.2533
8.25423
8.25443
8.25447
8.25451
8.25455
8.25462
8.25469
8.25482
8.25496
8.25518
8.25543
8.25579
8.25622
8.25683
8.25757
8.25861
8.25989
8.26165
8.26386
8.26684
8.27066
8.27577
8.28253
8.2917
8.30411
8.32092
8.34392
8.37482
8.41789
8.47554
8.52903
8.65507
8.80186
8.97605
9.08778
8.68027
7.15753
4.18156
1.18275
0.0432166
0.812235
2.78608
4.87036
6.50477
7.49884
7.98023
8.16899
8.23087
8.24828
8.25256
8.25349
8.25369
8.25373
8.25377
8.2538
8.25388
8.25395
8.25408
8.25422
8.25444
8.25468
8.25504
8.25547
8.25607
8.2568
8.2578
8.25906
8.26076
8.26292
8.26581
8.26952
8.27449
8.28094
8.28965
8.30114
8.31665
8.33731
8.36493
8.4024
8.45111
8.4978
8.6001
8.71137
8.82491
8.82613
8.3825
6.89015
4.06803
1.20461
0.0606006
0.81229
2.78617
4.87039
6.50461
7.49908
7.98033
8.16877
8.23053
8.2479
8.25217
8.25309
8.25329
8.25333
8.25337
8.25341
8.25348
8.25356
8.25368
8.25382
8.25404
8.25428
8.25463
8.25505
8.25564
8.25636
8.25734
8.25856
8.26021
8.26229
8.26508
8.26863
8.27338
8.27948
8.28767
8.29828
8.31252
8.33109
8.35576
8.38821
8.42986
8.47018
8.55149
8.63181
8.692
8.59994
8.01381
6.37812
3.60023
1.01345
0.0490988
0.812351
2.78629
4.87047
6.50469
7.49947
7.98055
8.16873
8.2304
8.24773
8.25199
8.25291
8.2531
8.25315
8.25319
8.25323
8.25329
8.25337
8.2535
8.25364
8.25385
8.25409
8.25443
8.25485
8.25542
8.25613
8.25708
8.25827
8.25986
8.26186
8.26453
8.26791
8.27242
8.27814
8.2858
8.29549
8.30865
8.32501
8.34775
8.37392
8.4121
8.44381
8.50815
8.56403
8.57861
8.40991
7.70456
5.95674
3.22803
0.875534
0.042
0.812412
2.7864
4.87052
6.50496
7.49995
7.98084
8.1688
8.23037
8.24767
8.25192
8.25284
8.25303
8.25307
8.25311
8.25315
8.25322
8.2533
8.25342
8.25356
8.25376
8.25401
8.25434
8.25475
8.25531
8.256
8.25692
8.25808
8.25961
8.26153
8.26408
8.26729
8.27154
8.27688
8.284
8.29287
8.30488
8.31945
8.33985
8.36224
8.39409
8.43615
8.4772
8.49567
8.42886
8.08126
7.05358
4.93999
2.20167
0.406039
0.0135773
0.812463
2.78648
4.8705
6.50532
7.50053
7.98119
8.16892
8.23038
8.24765
8.25188
8.2528
8.25299
8.25304
8.25307
8.25312
8.25318
8.25326
8.25338
8.25352
8.25372
8.25396
8.25429
8.2547
8.25523
8.25591
8.2568
8.25792
8.25939
8.26125
8.26367
8.26672
8.27071
8.27571
8.28228
8.29043
8.30116
8.31435
8.33157
8.35254
8.37772
8.41008
8.43983
8.44354
8.35096
7.95817
6.86914
4.72469
2.0542
0.371572
0.0130494
0.812499
2.78651
4.87033
6.50572
7.50123
7.98157
8.16903
8.23037
8.2476
8.25183
8.25275
8.25293
8.25298
8.25302
8.25306
8.25312
8.25321
8.25332
8.25346
8.25365
8.2539
8.25421
8.25461
8.25514
8.2558
8.25666
8.25775
8.25916
8.26094
8.26324
8.26613
8.26989
8.27456
8.28061
8.28808
8.29773
8.30949
8.32436
8.34244
8.36332
8.39077
8.41336
8.40528
8.29492
7.87197
6.7447
4.5847
1.96473
0.351906
0.0123563
0.812493
2.78642
4.86986
6.50607
7.50195
7.98183
8.16895
8.23016
8.24736
8.25157
8.25249
8.25267
8.25272
8.25275
8.2528
8.25285
8.25294
8.25304
8.25319
8.25337
8.25361
8.25391
8.25431
8.25481
8.25546
8.25628
8.25734
8.25869
8.2604
8.26258
8.26533
8.26884
8.27323
8.27881
8.28572
8.2944
8.3051
8.31812
8.33418
8.35231
8.3738
8.39008
8.37454
8.25136
7.80812
6.65451
4.48463
1.90221
0.338411
0.011868
0.812341
2.78592
4.86861
6.50587
7.50209
7.9812
8.16786
8.22891
8.24605
8.25025
8.25116
8.25134
8.25139
8.25141
8.25145
8.2515
8.25158
8.25168
8.25182
8.25198
8.25222
8.2525
8.25288
8.25335
8.25397
8.25475
8.25576
8.25703
8.25865
8.2607
8.26329
8.26655
8.27063
8.27574
8.28207
8.28988
8.2995
8.31099
8.32509
8.34082
8.35885
8.37021
8.34874
8.2153
7.75639
6.58317
4.40728
1.85502
0.328396
0.0115065
0.811593
2.78389
4.86477
6.50283
7.49873
7.97628
8.16219
8.22296
8.24002
8.24418
8.24508
8.24524
8.24528
8.24529
8.24531
8.24534
8.2454
8.24546
8.24557
8.2457
8.24589
8.24612
8.24645
8.24685
8.2474
8.24807
8.24897
8.2501
8.25156
8.25338
8.25573
8.25864
8.26232
8.26687
8.27254
8.27941
8.28792
8.2979
8.31007
8.32352
8.33799
8.34519
8.31895
8.17774
7.70737
6.52037
4.34244
1.81663
0.320353
0.0112166
0.80857
2.77609
4.85182
6.48789
7.48041
7.95424
8.13845
8.19856
8.21539
8.21946
8.22031
8.22043
8.22042
8.22037
8.22034
8.22029
8.22027
8.22024
8.22024
8.22025
8.2203
8.22037
8.22052
8.22071
8.22102
8.22142
8.22201
8.22276
8.2238
8.22513
8.22689
8.22911
8.23199
8.23555
8.24007
8.24555
8.25238
8.26039
8.27014
8.28084
8.29189
8.29487
8.26436
8.11716
7.63977
6.44728
4.277
1.78126
0.313229
0.0109617
0.798114
2.74902
4.80879
6.43041
7.40902
7.87323
8.05293
8.11126
8.12746
8.13128
8.13199
8.13198
8.13183
8.13162
8.1314
8.13114
8.13088
8.13057
8.13027
8.12992
8.12957
8.12918
8.12881
8.12841
8.12805
8.12769
8.12741
8.12718
8.1271
8.12715
8.12745
8.12802
8.129
8.13042
8.13246
8.13514
8.13874
8.14315
8.14873
8.1549
8.16071
8.15832
8.12328
7.9729
7.49732
6.3184
4.18313
1.73829
0.305223
0.010679
0.768313
2.66723
4.67515
6.24397
7.1801
7.61952
7.78783
7.8418
7.85647
7.8597
7.86004
7.85976
7.85926
7.85865
7.85798
7.85721
7.85636
7.8554
7.85433
7.85313
7.85181
7.85033
7.84871
7.84692
7.84495
7.84282
7.84049
7.838
7.83532
7.8325
7.82951
7.82646
7.82328
7.82016
7.81701
7.81407
7.81128
7.80884
7.80675
7.80485
7.80191
7.79167
7.75058
7.60141
7.14495
6.02234
3.99218
1.66224
0.292186
0.010226
0.701247
2.45658
4.30855
5.73192
6.56418
6.94864
7.09333
7.13868
7.15046
7.15258
7.15234
7.15149
7.15033
7.149
7.14749
7.14579
7.14385
7.14167
7.1392
7.13645
7.13333
7.12987
7.12596
7.12165
7.11677
7.11145
7.10545
7.09894
7.09164
7.0838
7.07505
7.06577
7.05549
7.04473
7.03296
7.02082
7.00775
6.99451
6.98057
6.96651
6.95093
6.92954
6.88228
6.74378
6.34074
5.35924
3.57818
1.50527
0.266295
0.00933307
0.580843
2.01134
3.48977
4.60208
5.2409
5.53071
5.63743
5.66981
5.67755
5.67829
5.67742
5.6759
5.67402
5.67191
5.66948
5.66675
5.66362
5.66013
5.65614
5.65171
5.64664
5.64105
5.63467
5.62766
5.61969
5.61099
5.60111
5.5904
5.57829
5.56527
5.55064
5.53505
5.51766
5.49935
5.47915
5.45817
5.43538
5.41207
5.3873
5.36233
5.33581
5.3058
5.2583
5.14794
4.84945
4.1296
2.80423
1.20925
0.217556
0.00765316
0.402008
1.28593
2.17202
2.82968
3.20425
3.37223
3.43295
3.45075
3.45449
3.45438
3.45328
3.45171
3.44983
3.44772
3.44529
3.44256
3.43943
3.43595
3.43195
3.42753
3.42246
3.41689
3.41052
3.40355
3.3956
3.38695
3.37713
3.36651
3.3545
3.34162
3.32716
3.31179
3.29468
3.2767
3.25691
3.2364
3.21421
3.19156
3.16759
3.14357
3.11854
3.09224
3.05758
2.99201
2.82992
2.44283
1.70882
0.771873
0.144107
0.00511303
0.202163
0.518807
0.843217
1.08843
1.22886
1.29152
1.31386
1.32022
1.32138
1.32118
1.32057
1.31975
1.31879
1.31771
1.31646
1.31507
1.31346
1.31168
1.30963
1.30737
1.30479
1.30194
1.2987
1.29515
1.2911
1.28671
1.28173
1.27636
1.27029
1.2638
1.25653
1.24882
1.24026
1.23129
1.22146
1.2113
1.20035
1.18921
1.17748
1.16578
1.15372
1.14143
1.12667
1.10245
1.04748
0.918322
0.666523
0.322514
0.0650263
0.00235904
0.0635355
0.0914764
0.141577
0.182709
0.206339
0.216806
0.220504
0.221539
0.221709
0.221661
0.221537
0.221377
0.22119
0.22098
0.220738
0.220467
0.220155
0.219809
0.219412
0.218974
0.218472
0.217921
0.217292
0.216605
0.215823
0.214975
0.214014
0.212978
0.21181
0.210563
0.209166
0.207689
0.206052
0.20434
0.202466
0.200535
0.198458
0.196352
0.194138
0.191937
0.189677
0.187406
0.184779
0.180771
0.172158
0.152291
0.11333
0.0584383
0.0134974
0.000534382
0.00994614
0.00347601
0.00491337
0.00634039
0.00716322
0.0075265
0.00765461
0.00769044
0.00769635
0.00769476
0.00769056
0.00768513
0.00767877
0.00767161
0.00766336
0.00765413
0.00764353
0.00763173
0.00761823
0.00760328
0.00758622
0.00756742
0.00754603
0.0075226
0.00749601
0.00746706
0.00743435
0.007399
0.00735926
0.00731665
0.00726912
0.00721866
0.00716289
0.00710438
0.00704055
0.0069745
0.00690368
0.00683163
0.0067561
0.00668077
0.0066036
0.00652587
0.00643616
0.00629915
0.00600468
0.00532429
0.0039865
0.00209261
0.000520985
3.5845e-05
0.600556
0.154995
0.087686
0.051079
0.0290234
0.0161846
0.00893694
0.00491184
0.00269348
0.00147519
0.000807268
0.000441452
0.000241238
0.000131727
7.18673e-05
3.91703e-05
2.13278e-05
1.16141e-05
6.39104e-06
3.87975e-06
16.6512
10.9994
6.35709
3.53824
1.94946
1.07059
0.587122
0.321733
0.176203
0.0964496
0.0527659
0.0288503
0.0157638
0.00860684
0.0046951
0.00255857
0.00139256
0.000756796
0.000410498
0.000222404
5.2361
2.26131
1.28837
0.739435
0.415574
0.230409
0.126889
0.0696567
0.0381768
0.0209035
0.0114374
0.00625382
0.00341716
0.00186574
0.00101779
0.000554653
0.000301943
0.000164343
9.01909e-05
5.32763e-05
3.50559e-05
0.000516071
0.00225831
0.00481488
0.00705836
0.00840873
0.00899059
0.00914743
0.00913077
0.00905986
0.00896921
0.00887563
0.00878383
0.00869533
0.00861097
0.00853128
0.00845663
0.00838716
0.00832296
0.00826391
0.00820992
0.00816068
0.00811604
0.00807559
0.00803916
0.00800632
0.0079769
0.00795046
0.00792691
0.00790576
0.00788704
0.00787021
0.00785541
0.00784207
0.00783042
0.00781988
0.00781074
0.00780245
0.00779526
0.00778879
0.00778308
0.00777811
0.00777346
0.00776979
0.0077658
0.00776331
0.00775962
0.00775828
0.00775463
0.00775444
0.00775092
0.00775154
0.00774805
0.00774922
0.00774594
0.00774733
0.00774445
0.00774578
0.00774336
0.00774449
0.00774254
0.00774344
0.0077419
0.00774259
0.00774141
0.00774192
0.00774102
0.00774139
0.00774072
0.00774097
0.00774048
0.00774065
0.00774029
0.0077404
0.00774014
0.00774021
0.00774002
0.00774006
0.00773993
0.00773995
0.00773985
0.00773986
0.00773979
0.0077398
0.00773975
0.00773975
0.00773971
0.00773971
0.00773968
0.00773968
0.00773965
0.00773965
0.00773963
0.00773963
0.00773962
0.00773962
0.0077396
0.0077396
0.00773959
0.00773959
0.000515529
0.0131936
0.0625533
0.136167
0.20128
0.24071
0.257819
0.262528
0.262142
0.260179
0.257633
0.254999
0.252414
0.249921
0.247545
0.245299
0.243196
0.241238
0.239429
0.237764
0.236242
0.234854
0.233595
0.232455
0.231427
0.230501
0.229672
0.228926
0.228262
0.227665
0.227137
0.226662
0.226245
0.225868
0.22554
0.225242
0.224984
0.224751
0.224548
0.224365
0.224204
0.224064
0.223933
0.223829
0.223716
0.223646
0.223542
0.223504
0.223401
0.223396
0.223296
0.223314
0.223215
0.223249
0.223156
0.223196
0.223114
0.223152
0.223083
0.223115
0.22306
0.223086
0.223042
0.223062
0.223028
0.223043
0.223017
0.223028
0.223009
0.223016
0.223002
0.223007
0.222997
0.223
0.222993
0.222995
0.222989
0.22299
0.222987
0.222987
0.222984
0.222985
0.222983
0.222983
0.222981
0.222982
0.22298
0.22298
0.22298
0.22298
0.222979
0.222979
0.222978
0.222978
0.222978
0.222978
0.222977
0.222977
0.222977
0.222977
0.00208757
0.0580098
0.315734
0.741138
1.13673
1.38409
1.4951
1.5286
1.52936
1.52029
1.50743
1.49392
1.48061
1.46777
1.45551
1.44392
1.43305
1.42292
1.41355
1.40492
1.39703
1.38982
1.38329
1.37736
1.37202
1.3672
1.36288
1.359
1.35554
1.35243
1.34968
1.3472
1.34502
1.34306
1.34135
1.3398
1.33845
1.33723
1.33617
1.33522
1.33438
1.33365
1.33296
1.33242
1.33184
1.33146
1.33093
1.33072
1.33019
1.33016
1.32964
1.32973
1.32922
1.32938
1.32891
1.32911
1.32869
1.32888
1.32853
1.32869
1.32841
1.32853
1.32831
1.32841
1.32824
1.32831
1.32818
1.32823
1.32814
1.32817
1.3281
1.32813
1.32807
1.32809
1.32805
1.32806
1.32803
1.32804
1.32802
1.32802
1.32801
1.32801
1.328
1.328
1.32799
1.32799
1.32799
1.32799
1.32798
1.32798
1.32798
1.32798
1.32798
1.32798
1.32797
1.32797
1.32797
1.32797
1.32797
1.32797
0.00401428
0.11375
0.66388
1.67722
2.70464
3.38882
3.71482
3.8259
3.84298
3.8303
3.80748
3.78224
3.75719
3.73296
3.70982
3.68792
3.66737
3.64821
3.63047
3.61412
3.59915
3.58548
3.57306
3.5618
3.55165
3.54248
3.53427
3.52687
3.52028
3.51436
3.50912
3.5044
3.50025
3.49651
3.49323
3.49028
3.48771
3.48538
3.48336
3.48153
3.47994
3.47853
3.47724
3.47618
3.47508
3.47435
3.47334
3.47293
3.47193
3.47185
3.47088
3.47104
3.47008
3.47039
3.46949
3.46986
3.46907
3.46942
3.46876
3.46906
3.46853
3.46876
3.46835
3.46852
3.46821
3.46834
3.4681
3.46819
3.46801
3.46808
3.46795
3.46799
3.46789
3.46792
3.46785
3.46786
3.46781
3.46782
3.46779
3.46779
3.46777
3.46777
3.46775
3.46775
3.46774
3.46773
3.46772
3.46772
3.46772
3.46771
3.46771
3.46771
3.4677
3.4677
3.4677
3.4677
3.46769
3.46769
3.46769
3.46769
0.00537086
0.153202
0.921372
2.43177
4.06697
5.21519
5.79134
6.0064
6.05858
6.05415
6.0337
6.00819
5.98245
5.95761
5.93399
5.91172
5.89089
5.87154
5.85367
5.83725
5.82224
5.80857
5.79618
5.78496
5.77485
5.76574
5.75759
5.75026
5.74373
5.73787
5.73268
5.72801
5.72391
5.72021
5.71699
5.71407
5.71154
5.70923
5.70725
5.70545
5.70388
5.70249
5.70123
5.70018
5.69911
5.69838
5.6974
5.69698
5.696
5.69591
5.69496
5.69512
5.69417
5.69448
5.6936
5.69395
5.69318
5.69352
5.69288
5.69316
5.69265
5.69287
5.69247
5.69264
5.69233
5.69245
5.69223
5.69231
5.69214
5.6922
5.69207
5.69211
5.69202
5.69204
5.69198
5.69199
5.69194
5.69195
5.69192
5.69192
5.69189
5.6919
5.69188
5.69188
5.69186
5.69186
5.69185
5.69185
5.69184
5.69184
5.69184
5.69184
5.69183
5.69183
5.69183
5.69183
5.69182
5.69182
5.69182
5.69182
0.00600532
0.171719
1.04636
2.82368
4.82331
6.27377
7.02437
7.3199
7.40548
7.41408
7.40185
7.3828
7.36307
7.34423
7.32659
7.31022
7.29512
7.28129
7.26867
7.25722
7.24687
7.23753
7.22914
7.22161
7.21488
7.20886
7.2035
7.19871
7.19446
7.19067
7.18732
7.18432
7.18169
7.17933
7.17728
7.17542
7.17382
7.17236
7.17111
7.16997
7.16898
7.1681
7.16731
7.16665
7.16599
7.16551
7.16491
7.16463
7.16403
7.16397
7.16336
7.16348
7.16287
7.16308
7.16252
7.16275
7.16226
7.16247
7.16207
7.16225
7.16193
7.16207
7.16182
7.16192
7.16174
7.16181
7.16167
7.16172
7.16161
7.16165
7.16157
7.16159
7.16154
7.16155
7.16151
7.16152
7.16149
7.16149
7.16147
7.16147
7.16146
7.16146
7.16145
7.16145
7.16144
7.16144
7.16143
7.16143
7.16143
7.16143
7.16142
7.16142
7.16142
7.16142
7.16142
7.16142
7.16141
7.16141
7.16141
7.16141
0.00618449
0.176962
1.08471
2.95981
5.11701
6.71517
7.55861
7.90056
8.00708
8.02543
8.01858
8.00456
7.98957
7.97554
7.96278
7.95128
7.94097
7.9318
7.92366
7.91646
7.91012
7.90454
7.89963
7.89532
7.89155
7.88823
7.88533
7.88277
7.88054
7.87857
7.87686
7.87534
7.87402
7.87285
7.87183
7.87092
7.87014
7.86943
7.86883
7.86828
7.86782
7.86739
7.86703
7.8667
7.8664
7.86617
7.86589
7.86576
7.86548
7.86545
7.86516
7.86522
7.86493
7.86503
7.86477
7.86488
7.86465
7.86475
7.86456
7.86464
7.8645
7.86456
7.86445
7.86449
7.86441
7.86444
7.86437
7.8644
7.86435
7.86436
7.86433
7.86434
7.86431
7.86432
7.8643
7.8643
7.86429
7.86429
7.86428
7.86428
7.86428
7.86428
7.86427
7.86427
7.86427
7.86427
7.86427
7.86427
7.86426
7.86426
7.86426
7.86426
7.86426
7.86426
7.86426
7.86426
7.86426
7.86426
7.86426
7.86426
0.00616307
0.176365
1.08516
2.97961
5.18799
6.8506
7.74265
8.11061
8.22857
8.25155
8.24672
8.2344
8.22108
8.20893
8.19822
8.18888
8.1808
8.17385
8.1679
8.16283
8.15852
8.15486
8.15175
8.14912
8.1469
8.14501
8.1434
8.14204
8.14088
8.13988
8.13904
8.13831
8.13769
8.13715
8.13669
8.13628
8.13595
8.13564
8.13539
8.13516
8.13497
8.13479
8.13465
8.13451
8.1344
8.1343
8.1342
8.13414
8.13403
8.13403
8.13391
8.13394
8.13383
8.13387
8.13376
8.13381
8.13372
8.13375
8.13368
8.13371
8.13366
8.13368
8.13364
8.13365
8.13362
8.13363
8.13361
8.13362
8.1336
8.13361
8.13359
8.1336
8.13359
8.13359
8.13358
8.13358
8.13358
8.13358
8.13358
8.13358
8.13357
8.13357
8.13357
8.13357
8.13357
8.13357
8.13357
8.13357
8.13357
8.13357
8.13357
8.13357
8.13357
8.13357
8.13357
8.13357
8.13357
8.13357
8.13357
8.13357
0.00604983
0.173081
1.06849
2.95081
5.17393
6.87142
7.79432
8.17956
8.30405
8.32834
8.32325
8.3103
8.29653
8.28424
8.27367
8.26468
8.2571
8.25076
8.24549
8.24112
8.23752
8.23456
8.23213
8.23014
8.22851
8.22718
8.22609
8.2252
8.22447
8.22386
8.22337
8.22296
8.22263
8.22234
8.22212
8.22192
8.22176
8.22162
8.22151
8.22141
8.22134
8.22127
8.22121
8.22116
8.22112
8.22108
8.22104
8.22103
8.22099
8.221
8.22096
8.22097
8.22092
8.22093
8.22089
8.2209
8.22087
8.22088
8.22086
8.22087
8.22085
8.22086
8.22084
8.22085
8.22084
8.22084
8.22083
8.22084
8.22083
8.22083
8.22083
8.22083
8.22083
8.22083
8.22082
8.22083
8.22082
8.22082
8.22082
8.22082
8.22082
8.22082
8.22082
8.22082
8.22082
8.22082
8.22082
8.22082
8.22082
8.22082
8.22082
8.22082
8.22082
8.22082
8.22082
8.22082
8.22082
8.22082
8.22082
8.22082
0.00589799
0.168683
1.04515
2.90396
5.12912
6.85499
7.80628
8.20655
8.33548
8.35917
8.3524
8.33734
8.32182
8.30824
8.29677
8.28718
8.27924
8.27271
8.26737
8.26302
8.25951
8.25667
8.2544
8.25257
8.25111
8.24995
8.24902
8.24827
8.24767
8.2472
8.24682