/*--------------------------------*- C++ -*----------------------------------*\
| =========                 |                                                 |
| \\      /  F ield         | foam-extend: Open Source CFD                    |
|  \\    /   O peration     | Version:     4.0                                |
|   \\  /    A nd           | Web:         http://www.foam-extend.org         |
|    \\/     M anipulation  |                                                 |
\*---------------------------------------------------------------------------*/
FoamFile
{
    version     2.0;
    format      ascii;
    class       volScalarField;
    location    "3e-05";
    object      nut;
}
// * * * * * * * * * * * * * * * * * * * * * * * * * * * * * * * * * * * * * //

dimensions      [0 2 -1 0 0 0 0];

internalField   nonuniform List<scalar> 
28770
(
5.30193e-10
1.85294e-10
2.61914e-10
3.37983e-10
3.81844e-10
4.0121e-10
4.08039e-10
4.09949e-10
4.10265e-10
4.10179e-10
4.09955e-10
4.09666e-10
4.09327e-10
4.08945e-10
4.08505e-10
4.08013e-10
4.07448e-10
4.06819e-10
4.061e-10
4.05303e-10
4.04393e-10
4.03391e-10
4.02251e-10
4.01002e-10
3.99585e-10
3.98041e-10
3.96298e-10
3.94413e-10
3.92295e-10
3.90024e-10
3.8749e-10
3.848e-10
3.81827e-10
3.78708e-10
3.75306e-10
3.71785e-10
3.6801e-10
3.64169e-10
3.60143e-10
3.56127e-10
3.52014e-10
3.4787e-10
3.43088e-10
3.35785e-10
3.20088e-10
2.83818e-10
2.12506e-10
1.11549e-10
2.77715e-11
1.9107e-12
2.59044e-08
2.90508e-08
4.3909e-08
5.65019e-08
6.3779e-08
6.70064e-08
6.81445e-08
6.84602e-08
6.85079e-08
6.84875e-08
6.84426e-08
6.83861e-08
6.83195e-08
6.82451e-08
6.81588e-08
6.8063e-08
6.79521e-08
6.78299e-08
6.76887e-08
6.75341e-08
6.73558e-08
6.71617e-08
6.69385e-08
6.6697e-08
6.64199e-08
6.61222e-08
6.57821e-08
6.54195e-08
6.50072e-08
6.45716e-08
6.408e-08
6.3566e-08
6.29915e-08
6.23978e-08
6.17433e-08
6.10762e-08
6.03539e-08
5.96295e-08
5.8864e-08
5.81105e-08
5.73343e-08
5.65644e-08
5.56869e-08
5.4404e-08
5.17382e-08
4.56909e-08
3.38473e-08
1.69377e-08
3.01032e-09
2.97086e-11
4.01486e-07
5.55569e-07
8.02646e-07
1.00845e-06
1.1311e-06
1.18682e-06
1.20681e-06
1.21245e-06
1.21337e-06
1.21305e-06
1.21231e-06
1.21137e-06
1.21027e-06
1.20903e-06
1.20759e-06
1.20599e-06
1.20415e-06
1.20211e-06
1.19976e-06
1.19718e-06
1.19422e-06
1.19097e-06
1.18725e-06
1.18321e-06
1.1786e-06
1.17361e-06
1.16793e-06
1.16185e-06
1.15496e-06
1.14763e-06
1.1394e-06
1.13074e-06
1.1211e-06
1.11108e-06
1.10006e-06
1.08877e-06
1.07658e-06
1.06428e-06
1.05131e-06
1.03848e-06
1.02527e-06
1.012e-06
9.96488e-07
9.72381e-07
9.19479e-07
7.95359e-07
5.48258e-07
2.13285e-07
2.0103e-08
1.3115e-10
3.09803e-06
3.86609e-06
5.06291e-06
6.08392e-06
6.71664e-06
7.01561e-06
7.1267e-06
7.15906e-06
7.16472e-06
7.16284e-06
7.15878e-06
7.1535e-06
7.14726e-06
7.14025e-06
7.13214e-06
7.1231e-06
7.11268e-06
7.10114e-06
7.08786e-06
7.07323e-06
7.05645e-06
7.03806e-06
7.01701e-06
6.99408e-06
6.9679e-06
6.93957e-06
6.90735e-06
6.87274e-06
6.83358e-06
6.79187e-06
6.74499e-06
6.69557e-06
6.64054e-06
6.58321e-06
6.52019e-06
6.45544e-06
6.38549e-06
6.31479e-06
6.24016e-06
6.1661e-06
6.08944e-06
6.01065e-06
5.91136e-06
5.73419e-06
5.30493e-06
4.28505e-06
2.46828e-06
6.80642e-07
4.65785e-08
2.84259e-10
1.37564e-05
1.56412e-05
1.86502e-05
2.12694e-05
2.29474e-05
2.37746e-05
2.40958e-05
2.41932e-05
2.42113e-05
2.42052e-05
2.41924e-05
2.41759e-05
2.41562e-05
2.4134e-05
2.41083e-05
2.40797e-05
2.40467e-05
2.40101e-05
2.39681e-05
2.39217e-05
2.38685e-05
2.381e-05
2.37432e-05
2.36702e-05
2.3587e-05
2.34967e-05
2.33941e-05
2.32835e-05
2.31584e-05
2.30249e-05
2.28747e-05
2.2716e-05
2.25391e-05
2.23543e-05
2.21509e-05
2.19414e-05
2.17146e-05
2.14848e-05
2.12416e-05
2.09991e-05
2.07447e-05
2.04679e-05
2.00599e-05
1.91691e-05
1.68593e-05
1.19308e-05
5.41676e-06
1.16422e-06
7.0819e-08
4.25478e-10
3.65495e-05
4.15837e-05
4.71449e-05
5.13981e-05
5.41076e-05
5.54788e-05
5.60335e-05
5.62099e-05
5.62448e-05
5.62346e-05
5.62103e-05
5.61799e-05
5.61432e-05
5.61018e-05
5.6054e-05
5.60004e-05
5.59388e-05
5.58702e-05
5.57914e-05
5.57042e-05
5.56043e-05
5.54943e-05
5.53685e-05
5.52307e-05
5.50733e-05
5.4902e-05
5.47071e-05
5.44963e-05
5.42574e-05
5.40011e-05
5.37123e-05
5.34055e-05
5.30625e-05
5.27022e-05
5.2304e-05
5.18914e-05
5.14426e-05
5.09849e-05
5.04975e-05
5.00055e-05
4.94714e-05
4.88112e-05
4.75625e-05
4.42706e-05
3.58901e-05
2.14495e-05
7.93992e-06
1.49212e-06
8.68473e-08
5.18873e-10
6.02376e-05
7.22046e-05
8.09578e-05
8.66053e-05
8.96931e-05
9.11976e-05
9.18173e-05
9.20249e-05
9.20727e-05
9.20674e-05
9.20448e-05
9.20162e-05
9.19816e-05
9.19421e-05
9.18964e-05
9.18452e-05
9.17862e-05
9.17205e-05
9.1645e-05
9.15612e-05
9.14652e-05
9.1359e-05
9.12375e-05
9.11039e-05
9.09512e-05
9.07841e-05
9.05936e-05
9.03865e-05
9.0151e-05
8.98969e-05
8.96093e-05
8.93017e-05
8.8956e-05
8.859e-05
8.81827e-05
8.77571e-05
8.72902e-05
8.68095e-05
8.62915e-05
8.57547e-05
8.5119e-05
8.41048e-05
8.14919e-05
7.36544e-05
5.49482e-05
2.86481e-05
9.40813e-06
1.66625e-06
9.53811e-08
5.68514e-10
7.29061e-05
9.07276e-05
0.000101933
0.000108691
0.000111879
0.000113325
0.000113917
0.000114124
0.000114181
0.000114188
0.000114179
0.000114164
0.000114147
0.000114127
0.000114104
0.000114078
0.000114048
0.000114014
0.000113976
0.000113934
0.000113885
0.000113831
0.000113769
0.000113701
0.000113623
0.000113538
0.000113441
0.000113336
0.000113215
0.000113085
0.000112938
0.000112781
0.000112603
0.000112415
0.000112205
0.000111985
0.000111743
0.000111493
0.000111221
0.000110922
0.000110482
0.000109399
0.000105712
9.37947e-05
6.65956e-05
3.23924e-05
1.01123e-05
1.75222e-06
9.97183e-08
5.93703e-10
7.72734e-05
9.75493e-05
0.000109887
0.000117083
0.000120358
0.000121779
0.000122358
0.000122566
0.000122629
0.000122643
0.000122643
0.000122638
0.000122633
0.000122626
0.000122618
0.00012261
0.0001226
0.000122589
0.000122577
0.000122563
0.000122547
0.00012253
0.00012251
0.000122489
0.000122465
0.000122439
0.000122409
0.000122378
0.000122343
0.000122305
0.000122264
0.000122221
0.000122174
0.000122126
0.000122074
0.000122023
0.000121969
0.000121916
0.00012186
0.00012178
0.000121549
0.000120557
0.000116476
0.000102737
7.17262e-05
3.40959e-05
1.0474e-05
1.80292e-06
1.02426e-07
6.09419e-10
7.8446e-05
9.94291e-05
0.000112105
0.000119436
0.000122771
0.000124181
0.000124756
0.000124964
0.00012503
0.000125047
0.00012505
0.000125049
0.000125048
0.000125046
0.000125044
0.000125042
0.00012504
0.000125038
0.000125035
0.000125032
0.000125029
0.000125026
0.000125023
0.000125019
0.000125016
0.000125013
0.00012501
0.000125007
0.000125006
0.000125006
0.000125007
0.00012501
0.000125017
0.000125028
0.000125043
0.000125065
0.000125094
0.000125131
0.000125174
0.000125199
0.00012508
0.00012419
0.000120107
0.000106029
7.39865e-05
3.50744e-05
1.07416e-05
1.84656e-06
1.04868e-07
6.23591e-10
7.87119e-05
9.98589e-05
0.000112609
0.000119995
0.000123358
0.000124757
0.000125327
0.000125535
0.0001256
0.000125618
0.000125622
0.000125623
0.000125623
0.000125623
0.000125623
0.000125622
0.000125622
0.000125622
0.000125623
0.000125623
0.000125623
0.000125624
0.000125626
0.000125627
0.00012563
0.000125634
0.000125638
0.000125645
0.000125653
0.000125664
0.000125679
0.000125697
0.000125721
0.000125751
0.000125789
0.000125837
0.000125896
0.000125967
0.00012605
0.00012612
0.000126062
0.000125257
0.000121318
0.000107475
7.54282e-05
3.59239e-05
1.10176e-05
1.89506e-06
1.07645e-07
6.39703e-10
7.87624e-05
9.99402e-05
0.000112701
0.000120118
0.000123496
0.000124885
0.000125449
0.000125655
0.00012572
0.000125738
0.000125743
0.000125743
0.000125744
0.000125744
0.000125744
0.000125744
0.000125745
0.000125745
0.000125746
0.000125747
0.000125749
0.000125751
0.000125753
0.000125756
0.00012576
0.000125766
0.000125773
0.000125781
0.000125793
0.000125807
0.000125826
0.000125849
0.000125878
0.000125916
0.000125962
0.000126021
0.000126092
0.000126179
0.000126283
0.000126378
0.000126362
0.000125648
0.000121921
0.000108543
7.68581e-05
3.69028e-05
1.13545e-05
1.95528e-06
1.11109e-07
6.59804e-10
7.87688e-05
9.99504e-05
0.000112713
0.000120152
0.000123538
0.000124917
0.000125475
0.000125678
0.000125743
0.000125761
0.000125766
0.000125766
0.000125767
0.000125767
0.000125767
0.000125768
0.000125768
0.000125769
0.00012577
0.000125771
0.000125773
0.000125775
0.000125778
0.000125781
0.000125786
0.000125792
0.000125799
0.000125809
0.000125821
0.000125837
0.000125857
0.000125882
0.000125914
0.000125956
0.000126007
0.000126074
0.000126155
0.000126257
0.000126378
0.000126498
0.000126541
0.000125934
0.000122468
0.000109715
7.86114e-05
3.81753e-05
1.18034e-05
2.03644e-06
1.15799e-07
6.86953e-10
7.8768e-05
9.99496e-05
0.000112713
0.000120169
0.000123561
0.000124931
0.000125482
0.000125684
0.000125748
0.000125766
0.00012577
0.000125771
0.000125771
0.000125772
0.000125772
0.000125772
0.000125773
0.000125774
0.000125775
0.000125776
0.000125778
0.00012578
0.000125783
0.000125787
0.000125791
0.000125797
0.000125805
0.000125815
0.000125828
0.000125845
0.000125866
0.000125893
0.000125928
0.000125973
0.000126029
0.000126104
0.000126195
0.000126313
0.000126455
0.000126608
0.000126704
0.000126232
0.00012316
0.000111299
8.11139e-05
4.00565e-05
1.24752e-05
2.15812e-06
1.22772e-07
7.25486e-10
7.8767e-05
9.9949e-05
0.000112715
0.000120186
0.000123581
0.000124943
0.000125488
0.000125688
0.000125751
0.000125769
0.000125773
0.000125774
0.000125775
0.000125775
0.000125775
0.000125776
0.000125776
0.000125777
0.000125778
0.000125779
0.000125781
0.000125783
0.000125786
0.00012579
0.000125795
0.000125801
0.000125809
0.000125819
0.000125833
0.00012585
0.000125872
0.000125901
0.000125938
0.000125987
0.000126048
0.00012613
0.000126231
0.000126371
0.000126524
0.000126728
0.000126918
0.000126655
0.000124184
0.00011377
8.52596e-05
4.33908e-05
1.37364e-05
2.40283e-06
1.37442e-07
7.54831e-10
7.87671e-05
9.99506e-05
0.000112721
0.000120204
0.000123606
0.00012496
0.000125499
0.000125696
0.000125759
0.000125777
0.000125781
0.000125782
0.000125782
0.000125783
0.000125783
0.000125783
0.000125784
0.000125785
0.000125786
0.000125787
0.000125789
0.000125791
0.000125794
0.000125798
0.000125802
0.000125809
0.000125817
0.000125828
0.000125842
0.00012586
0.000125882
0.000125913
0.000125951
0.000126002
0.000126067
0.000126157
0.00012627
0.000126426
0.000126606
0.000126862
0.000127124
0.000127109
0.000126062
0.000119962
9.88909e-05
5.8188e-05
2.13698e-05
4.65448e-06
4.22759e-07
3.38507e-09
7.8769e-05
9.99558e-05
0.000112733
0.000120226
0.000123645
0.000124988
0.000125522
0.000125717
0.00012578
0.000125798
0.000125802
0.000125803
0.000125803
0.000125803
0.000125803
0.000125804
0.000125804
0.000125805
0.000125806
0.000125807
0.000125809
0.000125811
0.000125814
0.000125818
0.000125822
0.000125829
0.000125837
0.000125848
0.000125862
0.00012588
0.000125903
0.000125932
0.00012597
0.000126021
0.00012609
0.000126186
0.000126313
0.000126482
0.000126705
0.00012699
0.000127325
0.000127506
0.000127064
0.000122831
0.000105377
6.60251e-05
2.54579e-05
5.66179e-06
5.01055e-07
3.66178e-09
7.87735e-05
9.9966e-05
0.000112752
0.000120258
0.000123708
0.000125042
0.000125571
0.000125766
0.000125829
0.000125846
0.00012585
0.000125851
0.000125851
0.000125851
0.000125851
0.000125852
0.000125852
0.000125853
0.000125854
0.000125855
0.000125856
0.000125858
0.000125861
0.000125865
0.000125869
0.000125876
0.000125884
0.000125895
0.000125908
0.000125925
0.000125945
0.000125969
0.000126001
0.000126048
0.000126117
0.000126218
0.000126357
0.000126546
0.000126804
0.000127139
0.000127538
0.000127899
0.000127969
0.000125349
0.000111594
7.46836e-05
3.025e-05
6.79134e-06
6.00643e-07
4.39853e-09
7.87815e-05
9.99829e-05
0.000112782
0.000120308
0.000123805
0.000125138
0.000125669
0.000125865
0.000125928
0.000125946
0.00012595
0.000125951
0.000125951
0.000125951
0.000125951
0.000125951
0.000125951
0.000125952
0.000125953
0.000125954
0.000125955
0.000125957
0.000125959
0.000125963
0.000125967
0.000125974
0.000125981
0.000125992
0.000126003
0.000126015
0.000126026
0.000126035
0.00012605
0.000126084
0.000126148
0.000126252
0.000126404
0.000126615
0.000126912
0.000127309
0.000127776
0.000128295
0.000128808
0.000127585
0.000117759
8.03185e-05
3.28158e-05
7.08553e-06
5.77382e-07
2.35971e-09
7.8793e-05
0.000100007
0.000112824
0.000120378
0.00012394
0.000125296
0.000125839
0.00012604
0.000126104
0.000126121
0.000126125
0.000126126
0.000126126
0.000126126
0.000126126
0.000126126
0.000126127
0.000126127
0.000126128
0.000126129
0.00012613
0.000126132
0.000126134
0.000126138
0.000126142
0.000126148
0.000126155
0.000126163
0.00012617
0.000126171
0.000126158
0.000126131
0.000126112
0.000126125
0.000126181
0.000126287
0.000126452
0.000126688
0.000127023
0.000127491
0.000128035
0.000128715
0.000129617
0.00012957
0.000123436
9.23833e-05
4.18843e-05
9.59426e-06
8.07506e-07
3.31671e-09
7.88069e-05
0.000100035
0.000112875
0.000120465
0.000124109
0.000125518
0.000126084
0.000126291
0.000126357
0.000126374
0.000126378
0.000126379
0.000126379
0.000126379
0.000126379
0.000126379
0.000126379
0.00012638
0.00012638
0.000126382
0.000126383
0.000126385
0.000126387
0.000126391
0.000126395
0.000126401
0.000126407
0.000126411
0.000126406
0.00012638
0.000126314
0.000126231
0.000126174
0.000126164
0.000126212
0.00012632
0.000126498
0.00012676
0.000127137
0.000127676
0.000128301
0.000129154
0.000130401
0.000131228
0.000115821
8.81009e-05
5.45321e-05
1.35877e-05
1.16401e-06
4.81241e-09
7.88214e-05
0.000100065
0.000112928
0.000120559
0.000124291
0.000125775
0.000126369
0.000126583
0.000126649
0.000126667
0.000126671
0.000126672
0.000126672
0.000126672
0.000126672
0.000126672
0.000126673
0.000126673
0.000126674
0.000126675
0.000126676
0.000126679
0.000126681
0.000126685
0.00012669
0.000126695
0.000126698
0.000126693
0.000126663
0.00012658
0.000126447
0.000126313
0.000126223
0.000126196
0.000126238
0.00012635
0.000126541
0.000126827
0.000127245
0.000127855
0.00012856
0.000129595
0.000131126
0.000125296
0.000102991
7.54091e-05
5.48576e-05
2.08654e-05
1.90598e-06
8.0952e-09
7.88346e-05
0.000100091
0.000112977
0.000120646
0.000124461
0.000126024
0.000126645
0.000126864
0.000126931
0.000126948
0.000126952
0.000126953
0.000126953
0.000126954
0.000126954
0.000126954
0.000126954
0.000126955
0.000126956
0.000126957
0.000126959
0.000126962
0.000126965
0.000126969
0.000126973
0.000126977
0.000126973
0.000126948
0.00012687
0.000126723
0.000126538
0.000126369
0.000126257
0.000126219
0.000126258
0.000126375
0.000126578
0.000126885
0.000127341
0.000128013
0.000128789
0.000130004
0.000131725
0.000114315
9.21143e-05
6.62109e-05
4.733e-05
3.0712e-05
3.21197e-06
4.39363e-08
7.88451e-05
0.000100113
0.000113015
0.000120716
0.0001246
0.000126231
0.000126874
0.000127097
0.000127164
0.000127181
0.000127185
0.000127186
0.000127186
0.000127186
0.000127186
0.000127187
0.000127187
0.000127189
0.000127189
0.000127191
0.000127193
0.000127196
0.000127199
0.000127204
0.000127207
0.000127207
0.000127189
0.000127126
0.000126995
0.000126804
0.000126589
0.0001264
0.000126276
0.000126233
0.000126272
0.000126394
0.000126606
0.000126931
0.000127417
0.000128137
0.000128969
0.000130345
0.000131234
0.000105431
8.32628e-05
6.02184e-05
4.30934e-05
2.72055e-05
9.57725e-06
1.98461e-07
7.8852e-05
0.000100127
0.000113041
0.000120764
0.000124698
0.00012638
0.000127037
0.000127262
0.000127328
0.000127346
0.00012735
0.000127351
0.000127351
0.000127351
0.000127351
0.000127352
0.000127353
0.000127354
0.000127355
0.000127357
0.000127359
0.000127362
0.000127365
0.00012737
0.000127371
0.000127364
0.000127323
0.000127225
0.000127063
0.000126849
0.000126618
0.000126418
0.000126288
0.000126242
0.000126282
0.000126406
0.000126624
0.00012696
0.000127466
0.000128218
0.000129081
0.000130581
0.000125031
9.92532e-05
7.7166e-05
5.63316e-05
4.0222e-05
2.6636e-05
1.557e-05
4.40104e-06
7.88544e-05
0.000100132
0.00011305
0.000120781
0.000124737
0.000126444
0.000127108
0.000127333
0.0001274
0.000127417
0.000127421
0.000127422
0.000127422
0.000127422
0.000127422
0.000127423
0.000127424
0.000127425
0.000127426
0.000127428
0.00012743
0.000127433
0.000127437
0.000127441
0.000127441
0.000127425
0.000127368
0.000127258
0.000127087
0.000126867
0.00012663
0.000126426
0.000126292
0.000126245
0.000126285
0.00012641
0.000126631
0.000126971
0.000127483
0.000128246
0.000129109
0.00013069
0.000121931
9.62927e-05
7.42858e-05
5.44575e-05
3.90596e-05
2.65988e-05
1.71008e-05
1.27757e-05
7.8852e-05
0.000100127
0.000113041
0.000120764
0.000124698
0.00012638
0.000127037
0.000127262
0.000127328
0.000127346
0.00012735
0.000127351
0.000127351
0.000127351
0.000127351
0.000127352
0.000127353
0.000127354
0.000127355
0.000127357
0.000127359
0.000127362
0.000127365
0.00012737
0.000127371
0.000127364
0.000127323
0.000127226
0.000127065
0.000126851
0.000126619
0.000126418
0.000126288
0.000126242
0.000126281
0.000126406
0.000126624
0.00012696
0.000127466
0.000128218
0.000129047
0.000130654
0.000122395
9.69576e-05
7.50687e-05
5.49219e-05
3.94438e-05
2.65354e-05
1.47705e-05
5.58179e-06
7.88451e-05
0.000100113
0.000113015
0.000120716
0.0001246
0.000126231
0.000126874
0.000127097
0.000127164
0.000127181
0.000127185
0.000127186
0.000127186
0.000127186
0.000127186
0.000127187
0.000127187
0.000127189
0.000127189
0.000127191
0.000127193
0.000127196
0.000127199
0.000127204
0.000127207
0.000127207
0.00012719
0.000127131
0.000127002
0.000126808
0.00012659
0.0001264
0.000126276
0.000126233
0.000126272
0.000126393
0.000126606
0.000126931
0.000127417
0.000128137
0.000128905
0.000130479
0.000126406
0.000101146
7.92907e-05
5.82239e-05
4.16596e-05
2.65748e-05
1.30887e-05
2.63996e-07
7.88346e-05
0.000100091
0.000112977
0.000120646
0.000124461
0.000126024
0.000126645
0.000126864
0.000126931
0.000126948
0.000126952
0.000126953
0.000126953
0.000126954
0.000126954
0.000126954
0.000126954
0.000126955
0.000126956
0.000126957
0.000126959
0.000126962
0.000126965
0.000126969
0.000126973
0.000126977
0.000126973
0.00012695
0.000126872
0.000126724
0.000126538
0.000126368
0.000126256
0.000126218
0.000126258
0.000126375
0.000126577
0.000126885
0.000127341
0.000128013
0.0001287
0.000130187
0.000131972
0.000108382
8.65647e-05
6.47535e-05
4.64486e-05
2.7888e-05
5.9615e-06
5.09481e-08
7.88214e-05
0.000100065
0.000112928
0.000120559
0.000124291
0.000125775
0.000126369
0.000126583
0.000126649
0.000126667
0.000126671
0.000126672
0.000126672
0.000126672
0.000126672
0.000126672
0.000126673
0.000126673
0.000126674
0.000126675
0.000126676
0.000126679
0.000126681
0.000126685
0.00012669
0.000126695
0.000126698
0.000126693
0.000126664
0.000126581
0.000126447
0.000126313
0.000126222
0.000126196
0.000126237
0.00012635
0.000126541
0.000126827
0.000127245
0.000127855
0.000128454
0.000129806
0.000131447
0.000118168
9.61025e-05
7.44363e-05
5.49389e-05
2.35701e-05
2.22965e-06
9.82243e-09
7.88069e-05
0.000100035
0.000112875
0.000120465
0.000124109
0.000125518
0.000126084
0.000126291
0.000126357
0.000126374
0.000126378
0.000126379
0.000126379
0.000126379
0.000126379
0.000126379
0.000126379
0.00012638
0.00012638
0.000126382
0.000126383
0.000126385
0.000126387
0.000126391
0.000126395
0.000126401
0.000126407
0.000126411
0.000126406
0.00012638
0.000126314
0.000126231
0.000126173
0.000126164
0.000126211
0.00012632
0.000126498
0.00012676
0.000127137
0.000127676
0.000128187
0.000129375
0.000130775
0.000130104
0.000107415
8.49985e-05
5.82866e-05
1.49687e-05
1.29247e-06
5.35733e-09
7.8793e-05
0.000100007
0.000112824
0.000120378
0.00012394
0.000125296
0.000125839
0.00012604
0.000126104
0.000126121
0.000126125
0.000126126
0.000126126
0.000126126
0.000126126
0.000126126
0.000126127
0.000126127
0.000126128
0.000126129
0.00012613
0.000126132
0.000126134
0.000126138
0.000126142
0.000126148
0.000126155
0.000126163
0.00012617
0.000126171
0.000126158
0.00012613
0.000126112
0.000126125
0.000126181
0.000126287
0.000126452
0.000126688
0.000127023
0.000127491
0.000127922
0.000128929
0.000130011
0.000130449
0.000120813
9.54537e-05
4.46597e-05
1.04007e-05
8.77621e-07
3.60708e-09
7.87815e-05
9.99829e-05
0.000112782
0.000120308
0.000123805
0.000125138
0.000125669
0.000125865
0.000125928
0.000125946
0.00012595
0.000125951
0.000125951
0.000125951
0.000125951
0.000125951
0.000125951
0.000125952
0.000125953
0.000125954
0.000125955
0.000125957
0.000125959
0.000125963
0.000125967
0.000125974
0.000125981
0.000125992
0.000126003
0.000126015
0.000126026
0.000126035
0.00012605
0.000126084
0.000126148
0.000126252
0.000126404
0.000126615
0.000126912
0.000127308
0.000127668
0.000128496
0.00012921
0.000128609
0.000120707
8.32529e-05
3.47861e-05
7.61672e-06
6.2993e-07
2.58814e-09
7.87735e-05
9.9966e-05
0.000112752
0.000120258
0.000123708
0.000125042
0.000125571
0.000125766
0.000125829
0.000125846
0.00012585
0.000125851
0.000125851
0.000125851
0.000125851
0.000125852
0.000125852
0.000125853
0.000125854
0.000125855
0.000125856
0.000125858
0.000125861
0.000125865
0.000125869
0.000125876
0.000125884
0.000125895
0.000125908
0.000125925
0.000125945
0.000125969
0.000126001
0.000126048
0.000126117
0.000126218
0.000126357
0.000126546
0.000126804
0.000127139
0.000127445
0.000128086
0.000128388
0.000126493
0.000114654
7.95805e-05
3.33425e-05
7.59421e-06
6.82705e-07
5.05012e-09
7.8769e-05
9.99558e-05
0.000112733
0.000120226
0.000123645
0.000124988
0.000125522
0.000125717
0.00012578
0.000125798
0.000125802
0.000125803
0.000125803
0.000125803
0.000125803
0.000125804
0.000125804
0.000125805
0.000125806
0.000125807
0.000125809
0.000125811
0.000125814
0.000125818
0.000125822
0.000125829
0.000125837
0.000125848
0.000125862
0.00012588
0.000125903
0.000125932
0.00012597
0.000126021
0.00012609
0.000126186
0.000126313
0.000126482
0.000126705
0.00012699
0.000127241
0.000127695
0.000127524
0.000124129
0.000108509
7.02142e-05
2.77119e-05
6.1871e-06
5.46319e-07
3.99636e-09
7.87671e-05
9.99506e-05
0.000112721
0.000120204
0.000123606
0.00012496
0.000125499
0.000125696
0.000125759
0.000125777
0.000125781
0.000125782
0.000125782
0.000125783
0.000125783
0.000125783
0.000125784
0.000125785
0.000125786
0.000125787
0.000125789
0.000125791
0.000125794
0.000125798
0.000125802
0.000125809
0.000125817
0.000125828
0.000125841
0.00012586
0.000125882
0.000125913
0.000125951
0.000126002
0.000126067
0.000126157
0.00012627
0.000126426
0.000126606
0.000126861
0.000127035
0.0001273
0.000126578
0.000121447
0.0001022
6.20899e-05
2.34208e-05
5.18328e-06
4.62137e-07
3.41368e-09
7.8767e-05
9.9949e-05
0.000112715
0.000120186
0.000123581
0.000124943
0.000125488
0.000125688
0.000125751
0.000125769
0.000125773
0.000125774
0.000125775
0.000125775
0.000125775
0.000125776
0.000125776
0.000125777
0.000125778
0.000125779
0.000125781
0.000125783
0.000125786
0.00012579
0.000125795
0.000125801
0.000125809
0.000125819
0.000125833
0.00012585
0.000125872
0.000125901
0.000125938
0.000125987
0.000126048
0.00012613
0.000126231
0.000126371
0.000126524
0.000126728
0.000126918
0.000126655
0.000124184
0.000113769
8.52596e-05
4.33909e-05
1.37364e-05
2.40283e-06
1.37441e-07
7.54829e-10
7.8768e-05
9.99496e-05
0.000112713
0.000120169
0.000123561
0.000124931
0.000125482
0.000125684
0.000125748
0.000125766
0.00012577
0.000125771
0.000125771
0.000125772
0.000125772
0.000125772
0.000125773
0.000125774
0.000125775
0.000125776
0.000125778
0.00012578
0.000125783
0.000125787
0.000125791
0.000125797
0.000125805
0.000125815
0.000125828
0.000125845
0.000125866
0.000125893
0.000125928
0.000125973
0.000126029
0.000126104
0.000126195
0.000126313
0.000126455
0.000126608
0.000126704
0.000126232
0.00012316
0.000111298
8.11138e-05
4.00565e-05
1.24752e-05
2.15812e-06
1.22771e-07
7.25484e-10
7.87688e-05
9.99504e-05
0.000112713
0.000120152
0.000123538
0.000124917
0.000125475
0.000125678
0.000125743
0.000125761
0.000125766
0.000125766
0.000125767
0.000125767
0.000125767
0.000125768
0.000125768
0.000125769
0.00012577
0.000125771
0.000125773
0.000125775
0.000125778
0.000125781
0.000125786
0.000125792
0.000125799
0.000125809
0.000125821
0.000125837
0.000125857
0.000125882
0.000125914
0.000125956
0.000126007
0.000126074
0.000126155
0.000126257
0.000126378
0.000126498
0.000126541
0.000125933
0.000122468
0.000109715
7.86113e-05
3.81753e-05
1.18034e-05
2.03644e-06
1.15799e-07
6.86952e-10
7.87624e-05
9.99402e-05
0.000112701
0.000120118
0.000123496
0.000124885
0.000125449
0.000125655
0.00012572
0.000125738
0.000125743
0.000125743
0.000125744
0.000125744
0.000125744
0.000125744
0.000125745
0.000125745
0.000125746
0.000125747
0.000125749
0.000125751
0.000125753
0.000125756
0.00012576
0.000125766
0.000125773
0.000125781
0.000125793
0.000125807
0.000125825
0.000125849
0.000125878
0.000125916
0.000125962
0.000126021
0.000126092
0.000126179
0.000126283
0.000126378
0.000126362
0.000125648
0.000121921
0.000108543
7.6858e-05
3.69028e-05
1.13545e-05
1.95528e-06
1.11108e-07
6.59803e-10
7.87119e-05
9.98589e-05
0.000112609
0.000119995
0.000123358
0.000124757
0.000125327
0.000125535
0.0001256
0.000125618
0.000125622
0.000125623
0.000125623
0.000125623
0.000125623
0.000125622
0.000125622
0.000125622
0.000125623
0.000125623
0.000125623
0.000125624
0.000125626
0.000125627
0.00012563
0.000125634
0.000125638
0.000125645
0.000125653
0.000125664
0.000125679
0.000125697
0.000125721
0.000125751
0.000125789
0.000125837
0.000125896
0.000125967
0.00012605
0.00012612
0.000126062
0.000125257
0.000121318
0.000107475
7.54282e-05
3.59239e-05
1.10176e-05
1.89506e-06
1.07645e-07
6.39702e-10
7.84459e-05
9.94291e-05
0.000112105
0.000119436
0.000122771
0.000124181
0.000124756
0.000124964
0.00012503
0.000125047
0.00012505
0.000125049
0.000125048
0.000125046
0.000125045
0.000125042
0.00012504
0.000125038
0.000125035
0.000125032
0.000125029
0.000125026
0.000125023
0.000125019
0.000125016
0.000125013
0.00012501
0.000125007
0.000125006
0.000125006
0.000125007
0.000125011
0.000125017
0.000125028
0.000125043
0.000125065
0.000125094
0.000125131
0.000125174
0.000125199
0.00012508
0.00012419
0.000120107
0.000106029
7.39865e-05
3.50744e-05
1.07416e-05
1.84656e-06
1.04868e-07
6.2359e-10
7.72733e-05
9.75493e-05
0.000109887
0.000117083
0.000120358
0.000121779
0.000122358
0.000122566
0.000122629
0.000122643
0.000122643
0.000122638
0.000122633
0.000122626
0.000122618
0.00012261
0.0001226
0.000122589
0.000122577
0.000122563
0.000122547
0.00012253
0.00012251
0.000122489
0.000122465
0.000122439
0.000122409
0.000122378
0.000122343
0.000122305
0.000122264
0.000122221
0.000122174
0.000122126
0.000122074
0.000122023
0.000121969
0.000121916
0.00012186
0.00012178
0.000121549
0.000120557
0.000116476
0.000102737
7.17262e-05
3.40959e-05
1.0474e-05
1.80292e-06
1.02426e-07
6.09418e-10
7.2906e-05
9.07275e-05
0.000101933
0.000108691
0.000111879
0.000113325
0.000113917
0.000114125
0.000114182
0.000114188
0.000114179
0.000114164
0.000114147
0.000114127
0.000114104
0.000114078
0.000114048
0.000114015
0.000113976
0.000113934
0.000113885
0.000113831
0.000113769
0.000113701
0.000113624
0.000113538
0.000113441
0.000113336
0.000113215
0.000113086
0.000112938
0.000112781
0.000112603
0.000112415
0.000112205
0.000111985
0.000111743
0.000111493
0.000111221
0.000110922
0.000110482
0.000109399
0.000105712
9.37948e-05
6.65957e-05
3.23924e-05
1.01123e-05
1.75222e-06
9.97182e-08
5.93703e-10
6.02375e-05
7.22045e-05
8.09578e-05
8.66054e-05
8.96932e-05
9.11977e-05
9.18174e-05
9.2025e-05
9.20728e-05
9.20675e-05
9.20449e-05
9.20164e-05
9.19817e-05
9.19422e-05
9.18965e-05
9.18453e-05
9.17864e-05
9.17206e-05
9.16452e-05
9.15614e-05
9.14653e-05
9.13592e-05
9.12376e-05
9.1104e-05
9.09513e-05
9.07842e-05
9.05937e-05
9.03866e-05
9.01511e-05
8.9897e-05
8.96094e-05
8.93019e-05
8.89561e-05
8.85901e-05
8.81828e-05
8.77572e-05
8.72903e-05
8.68096e-05
8.62916e-05
8.57548e-05
8.5119e-05
8.41048e-05
8.14919e-05
7.36545e-05
5.49483e-05
2.86481e-05
9.40813e-06
1.66625e-06
9.5381e-08
5.68513e-10
3.65494e-05
4.15836e-05
4.71449e-05
5.13981e-05
5.41077e-05
5.54789e-05
5.60336e-05
5.621e-05
5.62449e-05
5.62346e-05
5.62103e-05
5.61799e-05
5.61433e-05
5.61019e-05
5.6054e-05
5.60005e-05
5.59388e-05
5.58702e-05
5.57915e-05
5.57043e-05
5.56044e-05
5.54944e-05
5.53685e-05
5.52307e-05
5.50734e-05
5.49021e-05
5.47071e-05
5.44963e-05
5.42574e-05
5.40012e-05
5.37123e-05
5.34055e-05
5.30625e-05
5.27022e-05
5.2304e-05
5.18914e-05
5.14426e-05
5.09849e-05
5.04975e-05
5.00056e-05
4.94714e-05
4.88112e-05
4.75625e-05
4.42706e-05
3.58901e-05
2.14495e-05
7.93992e-06
1.49212e-06
8.68472e-08
5.18873e-10
1.37564e-05
1.56412e-05
1.86502e-05
2.12694e-05
2.29474e-05
2.37746e-05
2.40958e-05
2.41932e-05
2.42113e-05
2.42052e-05
2.41924e-05
2.41759e-05
2.41562e-05
2.4134e-05
2.41083e-05
2.40797e-05
2.40467e-05
2.40101e-05
2.39681e-05
2.39217e-05
2.38684e-05
2.381e-05
2.37432e-05
2.36702e-05
2.3587e-05
2.34967e-05
2.33941e-05
2.32835e-05
2.31584e-05
2.30249e-05
2.28747e-05
2.2716e-05
2.25391e-05
2.23543e-05
2.21509e-05
2.19414e-05
2.17146e-05
2.14848e-05
2.12416e-05
2.09991e-05
2.07447e-05
2.04679e-05
2.00599e-05
1.91691e-05
1.68593e-05
1.19308e-05
5.41676e-06
1.16422e-06
7.0819e-08
4.25478e-10
3.09803e-06
3.86609e-06
5.06291e-06
6.08391e-06
6.71664e-06
7.01561e-06
7.1267e-06
7.15905e-06
7.16471e-06
7.16283e-06
7.15878e-06
7.1535e-06
7.14725e-06
7.14024e-06
7.13214e-06
7.1231e-06
7.11268e-06
7.10113e-06
7.08786e-06
7.07323e-06
7.05644e-06
7.03805e-06
7.017e-06
6.99407e-06
6.9679e-06
6.93957e-06
6.90735e-06
6.87274e-06
6.83357e-06
6.79186e-06
6.74498e-06
6.69556e-06
6.64053e-06
6.5832e-06
6.52018e-06
6.45543e-06
6.38548e-06
6.31479e-06
6.24016e-06
6.1661e-06
6.08943e-06
6.01064e-06
5.91136e-06
5.73418e-06
5.30493e-06
4.28505e-06
2.46828e-06
6.80642e-07
4.65786e-08
2.84259e-10
4.01486e-07
5.55569e-07
8.02646e-07
1.00845e-06
1.1311e-06
1.18682e-06
1.20681e-06
1.21245e-06
1.21337e-06
1.21305e-06
1.21231e-06
1.21137e-06
1.21027e-06
1.20903e-06
1.20759e-06
1.20599e-06
1.20415e-06
1.20211e-06
1.19976e-06
1.19718e-06
1.19422e-06
1.19097e-06
1.18725e-06
1.18321e-06
1.17859e-06
1.17361e-06
1.16793e-06
1.16185e-06
1.15496e-06
1.14763e-06
1.1394e-06
1.13074e-06
1.1211e-06
1.11108e-06
1.10006e-06
1.08877e-06
1.07658e-06
1.06428e-06
1.05131e-06
1.03848e-06
1.02527e-06
1.012e-06
9.96488e-07
9.7238e-07
9.19479e-07
7.95359e-07
5.48258e-07
2.13285e-07
2.01031e-08