/*--------------------------------*- C++ -*----------------------------------*\
| =========                 |                                                 |
| \\      /  F ield         | foam-extend: Open Source CFD                    |
|  \\    /   O peration     | Version:     4.0                                |
|   \\  /    A nd           | Web:         http://www.foam-extend.org         |
|    \\/     M anipulation  |                                                 |
\*---------------------------------------------------------------------------*/
FoamFile
{
    version     2.0;
    format      ascii;
    class       volScalarField;
    location    "3e-05";
    object      omega;
}
// * * * * * * * * * * * * * * * * * * * * * * * * * * * * * * * * * * * * * //

dimensions      [0 0 -1 0 0 0 0];

internalField   nonuniform List<scalar> 
28770
(
1.87595e+07
1.87595e+07
1.87595e+07
1.87595e+07
1.87595e+07
1.87595e+07
1.87595e+07
1.87595e+07
1.87595e+07
1.87595e+07
1.87595e+07
1.87595e+07
1.87595e+07
1.87595e+07
1.87595e+07
1.87595e+07
1.87595e+07
1.87595e+07
1.87595e+07
1.87595e+07
1.87595e+07
1.87595e+07
1.87595e+07
1.87595e+07
1.87595e+07
1.87595e+07
1.87595e+07
1.87595e+07
1.87595e+07
1.87595e+07
1.87595e+07
1.87595e+07
1.87595e+07
1.87595e+07
1.87595e+07
1.87595e+07
1.87595e+07
1.87595e+07
1.87595e+07
1.87595e+07
1.87595e+07
1.87595e+07
1.87595e+07
1.87595e+07
1.87595e+07
1.87595e+07
1.87595e+07
1.87595e+07
1.87595e+07
1.87595e+07
2.4527e+06
3.14885e+06
3.22432e+06
3.23368e+06
3.23521e+06
3.2356e+06
3.23582e+06
3.23602e+06
3.23625e+06
3.23651e+06
3.23682e+06
3.23717e+06
3.23759e+06
3.23803e+06
3.23858e+06
3.23915e+06
3.23985e+06
3.24059e+06
3.24148e+06
3.24242e+06
3.24355e+06
3.24472e+06
3.24614e+06
3.2476e+06
3.24937e+06
3.25118e+06
3.25337e+06
3.25558e+06
3.25826e+06
3.26092e+06
3.26414e+06
3.2673e+06
3.2711e+06
3.27479e+06
3.27916e+06
3.28336e+06
3.28823e+06
3.29286e+06
3.29807e+06
3.30296e+06
3.30826e+06
3.31314e+06
3.31819e+06
3.32276e+06
3.32747e+06
3.33306e+06
3.34828e+06
3.45018e+06
4.48367e+06
1.79872e+07
503538
933830
1.05055e+06
1.07932e+06
1.08643e+06
1.08822e+06
1.0887e+06
1.08889e+06
1.08902e+06
1.08915e+06
1.0893e+06
1.08947e+06
1.08967e+06
1.08989e+06
1.09015e+06
1.09044e+06
1.09078e+06
1.09115e+06
1.09158e+06
1.09204e+06
1.09259e+06
1.09318e+06
1.09387e+06
1.0946e+06
1.09546e+06
1.09637e+06
1.09744e+06
1.09856e+06
1.09986e+06
1.10122e+06
1.1028e+06
1.10442e+06
1.10629e+06
1.10819e+06
1.11036e+06
1.11254e+06
1.11497e+06
1.11738e+06
1.12001e+06
1.12258e+06
1.12528e+06
1.12789e+06
1.13064e+06
1.13376e+06
1.13921e+06
1.1546e+06
1.21571e+06
1.51213e+06
3.23464e+06
1.79872e+07
129763
332618
429006
465108
477062
480676
481703
482013
482153
482264
482384
482520
482679
482857
483065
483295
483563
483859
484201
484577
485012
485488
486037
486633
487321
488064
488918
489835
490886
492004
493279
494625
496147
497736
499513
501345
503362
505411
507614
509815
512124
514460
517237
521785
533451
570082
692313
1.13404e+06
3.09385e+06
1.79872e+07
42223.5
128592
187117
216370
228388
232631
233959
234355
234500
234590
234678
234775
234889
235018
235167
235333
235526
235739
235986
236259
236573
236919
237317
237753
238254
238799
239424
240101
240875
241707
242654
243664
244804
246009
247356
248762
250310
251903
253620
255360
257213
259226
262130
268555
287643
346131
517695
1.03868e+06
3.072e+06
1.79872e+07
19186.2
59075.7
91389.5
111520
121317
125249
126591
127000
127131
127192
127243
127296
127359
127429
127511
127602
127708
127826
127962
128113
128287
128479
128701
128944
129224
129530
129882
130265
130704
131179
131721
132304
132966
133671
134463
135298
136225
137188
138236
139315
140504
141966
144700
152331
176671
249854
450658
1.00881e+06
3.06625e+06
1.79872e+07
12754.7
36939.8
57748
72096.8
80051.9
83549.7
84818.9
85213.9
85329
85369
85393.7
85417.1
85443.8
85474
85509.1
85548.5
85594.1
85645
85703.9
85769.2
85844.8
85928.4
86025
86131.5
86254.6
86389.8
86545.8
86716.6
86913.3
87127.7
87373.9
87640.6
87945.6
88273.6
88645.6
89042
89486.3
89953.8
90469.5
91013.7
91658.9
92642.5
95108.6
103204
130031
210218
424333
997591
3.06336e+06
1.79872e+07
10947.1
30299.7
47175.9
59162.1
66223.8
69474.6
70691.1
71073.8
71180.2
71209.7
71221.7
71230.5
71240.1
71250.7
71263.2
71277.2
71293.6
71311.8
71333.1
71356.7
71384.1
71414.6
71450
71489.3
71535
71585.4
71644.2
71709
71784.4
71867.4
71963.7
72069.4
72191.7
72325.1
72478.7
72644.9
72834.3
73037.1
73266.2
73519.4
73864.9
74574.2
76843.2
85003.7
112580
195058
413666
992049
3.06085e+06
1.79872e+07
10463.8
28458.3
44152.6
55412.6
62151.2
65316.9
66513.3
66891
66993.9
67019.4
67026.5
67029.8
67032.8
67036.1
67040
67044.3
67049.5
67055.3
67062.1
67069.7
67078.7
67088.7
67100.6
67113.9
67129.6
67147.2
67168.1
67191.6
67219.5
67250.8
67288
67329.9
67379.4
67435.1
67500.8
67574
67659.8
67754.5
67865.9
67998.6
68218.7
68804.3
70953.3
79008.9
106513
189092
408343
987983
3.05811e+06
1.79872e+07
10345.9
27998.8
43394.8
54446
61078.9
64231.1
65425.3
65802.5
65904.6
65928.9
65934.4
65936
65936.9
65937.9
65939
65940.3
65942
65943.8
65946
65948.5
65951.7
65955.2
65959.6
65964.6
65970.7
65977.8
65986.6
65996.8
66009.4
66024.2
66042.2
66063.6
66089.6
66120.3
66157.5
66201
66253.6
66313.9
66388
66482.3
66661.1
67197.2
69262.6
77127
104173
185901
404263
983793
3.05482e+06
1.79872e+07
10320.4
27898.6
43234.7
54217.9
60815.7
63973.9
65172.4
65550.8
65653
65677.1
65682.3
65683.3
65683.8
65684.1
65684.5
65685
65685.6
65686.4
65687.4
65688.6
65690.1
65691.9
65694.3
65697.1
65700.6
65705
65710.5
65717.2
65725.7
65736.2
65749.3
65765.5
65785.6
65810.3
65840.8
65878
65923.5
65977.7
66045.8
66134.3
66307.6
66824.1
68816.8
76439.3
102831
183253
400021
978874
3.05072e+06
1.79872e+07
10315.7
27880.8
43210.3
54163.8
60746.5
63913.4
65117.8
65498.2
65600.8
65625
65630
65631
65631.3
65631.5
65631.7
65632
65632.4
65633
65633.7
65634.6
65635.7
65637.2
65639
65641.3
65644.3
65648.1
65652.9
65659
65666.7
65676.5
65688.9
65704.5
65724.1
65748.8
65779.4
65817.8
65865.2
65923
65996.1
66090.1
66268.4
66774.4
68688.3
76019
101591
180325
394966
972854
3.04577e+06
1.79872e+07
10315
27879
43210.2
54145.9
60720.1
63895
65105.1
65487.6
65590.8
65615.1
65620.1
65621.1
65621.3
65621.5
65621.7
65622
65622.4
65622.9
65623.5
65624.4
65625.4
65626.8
65628.6
65630.9
65633.8
65637.6
65642.3
65648.5
65656.3
65666.3
65678.9
65695.3
65715.7
65742.1
65774.6
65816.6
65867.5
65932
66011.9
66114.3
66308.8
66808
68632.3
75604.1
100138
176677
388423
964787
3.03894e+06
1.79872e+07
10314.6
27878.9
43211.5
54134.7
60703.2
63884.7
65100.2
65484.8
65588.6
65613
65618.1
65619.1
65619.3
65619.5
65619.7
65620
65620.3
65620.8
65621.5
65622.3
65623.4
65624.8
65626.6
65628.9
65631.9
65635.8
65640.6
65647
65655.1
65665.6
65678.8
65696.2
65717.9
65746.4
65781.7
65828.1
65885.1
65959.7
66051.6
66170.4
66375.7
66859.8
68557.5
75032.1
98111
171487
378727
951847
3.02654e+06
1.79872e+07
10314.1
27878.2
43210.9
54124.2
60688.5
63875.7
65096.1
65482.7
65587.1
65611.6
65616.7
65617.7
65617.9
65618.1
65618.3
65618.6
65619
65619.5
65620.1
65621
65622.1
65623.5
65625.3
65627.8
65630.8
65634.8
65639.8
65646.5
65654.8
65666
65679.9
65698.5
65721.9
65753
65791.5
65843.7
65906.6
65995.1
66092.1
66237
66469.1
66931.5
68411.8
74087.1
94784.1
162559
359628
916284
2.95428e+06
1.79872e+07
10313.3
27876.6
43208.1
54113.8
60672.4
63865
65090
65478.5
65583.4
65608.1
65613.2
65614.3
65614.5
65614.7
65614.9
65615.2
65615.6
65616.1
65616.8
65617.7
65618.8
65620.3
65622.1
65624.7
65627.8
65631.9
65637.1
65644.1
65652.9
65664.7
65679.6
65699.7
65725.3
65759.3
65802
65859.5
65930.3
66028.8
66141.4
66309.4
66503.6
66798.2
67707.2
71107.7
84184.7
129990
269326
652393
1.90279e+06
1.22547e+07
10312.3
27874.1
43203.1
54103.1
60650.1
63848.7
65078.4
65468.6
65574
65598.8
65604
65605
65605.3
65605.5
65605.7
65606
65606.4
65607
65607.7
65608.7
65609.8
65611.4
65613.3
65615.9
65619.2
65623.5
65629
65636.4
65645.7
65658.4
65674.8
65697.1
65726
65764.1
65812.2
65875.2
65956.1
66062.7
66202.4
66382.3
66608.6
66901.2
67656
70283.7
80671.8
118934
241880
601509
1.87683e+06
1.23006e+07
10311
27870.3
43195.3
54090
60617.1
63820.7
65054.7
65446
65551.7
65576.7
65581.9
65583
65583.3
65583.5
65583.7
65584.1
65584.5
65585.2
65585.9
65587
65588.2
65589.9
65591.9
65594.7
65598.1
65602.7
65608.5
65616.4
65626.6
65640.8
65659.9
65686.5
65721.2
65765.8
65820.9
65891.4
65982.2
66101.7
66262.8
66471.5
66727.7
67057.3
67758.7
69856.7
78034.2
109677
218846
561796
1.8268e+06
1.22553e+07
10309.5
27865.1
43184.2
54071.3
60569.8
63772.6
65008.1
65399.6
65505.5
65530.6
65535.9
65537
65537.3
65537.6
65537.9
65538.3
65538.8
65539.5
65540.3
65541.4
65542.7
65544.6
65546.7
65549.7
65553.3
65558.2
65564.4
65573
65584.6
65601.8
65626.6
65662.2
65708.4
65763.5
65828.2
65907.4
66009.8
66143.7
66328.7
66574.8
66867.9
67250.2
67978.6
69752.9
76038.2
106530
212861
567199
1.92535e+06
1.67851e+07
10307.7
27858.7
43169.6
54045.1
60506.3
63695.5
64926.8
65317.2
65423.2
65448.5
65453.8
65455
65455.3
65455.6
65455.9
65456.4
65456.9
65457.7
65458.5
65459.7
65461.1
65463
65465.3
65468.4
65472.1
65477.3
65484.1
65493.9
65508.4
65531.8
65568.9
65624.1
65689
65758.4
65834.2
65923.4
66037.2
66187.9
66397
66686.5
67023.7
67480.2
68290.7
69908.7
74763.4
98055.6
184709
496226
1.7795e+06
1.66125e+07
10305.8
27851.5
43152.9
54012.8
60429.6
63588.4
64809.2
65197.6
65303.8
65329.3
65334.7
65336
65336.3
65336.6
65336.9
65337.4
65337.9
65338.7
65339.6
65340.8
65342.1
65344.1
65346.3
65349.5
65353.3
65358.8
65366.3
65378.4
65398.7
65435.6
65499.6
65583.2
65669.4
65753.4
65840.2
65938.9
66064.2
66231.7
66466.4
66800.5
67186.2
67738.1
68681.3
70318.6
74291.1
91650.7
158721
426763
1.65878e+06
1.64775e+07
10304
27844.4
43135.9
53978.7
60348.3
63464.9
64671.7
65058.6
65165.3
65191.2
65196.7
65197.9
65198.3
65198.6
65198.8
65199.3
65199.8
65200.5
65201.3
65202.5
65203.8
65205.6
65207.8
65210.9
65214.7
65220.6
65229.7
65246.5
65278.8
65344
65441.5
65550.6
65654.4
65750.6
65846.2
65953.6
66089.2
66272.7
66532.5
66909.8
67345.7
68010.8
69126.3
70932.5
74539
87482.8
136061
349202
1.47509e+06
1.61518e+07
10302.5
27838.2
43120.7
53947.4
60273.1
63345.5
64538.9
64924.8
65032.3
65058.6
65064.3
65065.5
65065.8
65066.1
65066.3
65066.8
65067.1
65067.8
65068.5
65069.6
65070.8
65072.5
65074.5
65077.5
65081.5
65088.4
65100.8
65127.1
65183.4
65279.8
65402.3
65529.5
65645.5
65750.1
65852.3
65966.3
66111
66308.4
66591.3
67006.6
67488.4
68276.7
69584.1
71670.2
75378.5
85824.2
118491
262138
1.28733e+06
1.05375e+07
10301.3
27833.3
43108.7
53922.3
60211.7
63246
64428.6
64814.1
64922.4
64949.1
64954.9
64956.2
64956.5
64956.7
64956.9
64957.3
64957.6
64958.2
64958.8
64959.8
64960.9
64962.5
64964.4
64967.4
64971.9
64980.7
64999.7
65044.4
65126.7
65244
65381.4
65518.6
65641.4
65750.9
65857.3
65976.3
66127.9
66336.2
66637.7
67082.9
67602.1
68508.8
69999.5
72404.3
76521.3
86294.3
108985
191114
819832
8.46628e+06
10300.6
27830.2
43101
53905.8
60169
63175
64350.1
64735.6
64844.6
64871.6
64877.5
64878.8
64879
64879.3
64879.4
64879.8
64880.1
64880.6
64881.2
64882.1
64883.1
64884.6
64886.5
64889.6
64894.8
64907
64937.4
64999.4
65096.1
65224.3
65369.6
65512.4
65639.2
65751.6
65860.7
65982.7
66138.9
66354.1
66667.7
67132.2
67673.4
68678.4
70310.9
72983.7
77556.8
87691.3
107093
156164
319981
2.2753e+06
10300.3
27829.1
43098.3
53900.2
60151.9
63143.7
64315.5
64701.3
64810.7
64837.9
64843.9
64845.1
64845.4
64845.6
64845.8
64846.1
64846.4
64846.9
64847.4
64848.3
64849.3
64850.8
64852.6
64855.9
64861.9
64878.3
64916.3
64984.1
65084.9
65216.3
65364.2
65509.5
65638.1
65751.7
65861.8
65984.9
66142.6
66360.3
66678
67149.4
67692
68758.8
70460.1
73268
78095.5
88526
107667
148563
238094
469964
10300.6
27830.2
43101
53905.8
60169
63175
64350.1
64735.6
64844.6
64871.6
64877.5
64878.8
64879
64879.3
64879.4
64879.8
64880.1
64880.6
64881.2
64882.1
64883.1
64884.6
64886.5
64889.6
64894.8
64906.9
64937.1
64998.7
65095
65223.5
65369.2
65512.3
65639.2
65751.6
65860.8
65982.8
66138.9
66354.1
66667.7
67132.2
67652.8
68732.1
70410.6
73172.6
77912
88022.3
107229
152581
299549
1.69566e+06
10301.3
27833.3
43108.7
53922.3
60211.7
63246
64428.6
64814.1
64922.4
64949.1
64954.9
64956.2
64956.5
64956.7
64956.9
64957.3
64957.6
64958.2
64958.8
64959.8
64960.9
64962.5
64964.4
64967.4
64971.8
64980.6
64999.1
65042
65123.3
65242.3
65380.8
65518.5
65641.5
65751
65857.4
65976.4
66127.9
66336.2
66637.7
67082.9
67563.6
68604.3
70173.7
72724.9
77082.4
86636.9
107976
178867
561106
7.92251e+06
10302.5
27838.2
43120.7
53947.4
60273.1
63345.5
64538.9
64924.8
65032.3
65058.6
65064.3
65065.5
65065.8
65066.1
65066.3
65066.8
65067.1
65067.8
65068.5
65069.6
65070.8
65072.5
65074.5
65077.5
65081.5
65088.3
65100.5
65126.3
65182.5
65279.5
65402.5
65529.8
65645.8
65750.3
65852.4
65966.4
66111.1
66308.4
66591.4
67006.6
67435.8
68400
69803.4
72050.5
75941.5
85789.7
115267
241825
936558
1.03657e+07
10304
27844.4
43135.9
53978.7
60348.3
63464.9
64671.7
65058.6
65165.3
65191.2
65196.7
65197.9
65198.3
65198.6
65198.8
65199.3
65199.8
65200.5
65201.3
65202.5
65203.8
65205.6
65207.8
65210.9
65214.7
65220.6
65229.6
65246.2
65278.6
65343.9
65441.6
65550.9
65654.7
65750.8
65846.3
65953.6
66089.2
66272.8
66532.5
66909.9
67283.6
68146.6
69358.3
71295.5
74904.2
86842.7
131101
328976
1.40727e+06
1.57113e+07
10305.8
27851.5
43152.9
54012.8
60429.6
63588.4
64809.2
65197.6
65303.8
65329.3
65334.7
65336
65336.3
65336.6
65336.9
65337.4
65337.9
65338.7
65339.6
65340.8
65342.1
65344.1
65346.3
65349.5
65353.3
65358.8
65366.3
65378.4
65398.6
65435.6
65499.8
65583.4
65669.5
65753.6
65840.3
65939
66064.2
66231.7
66466.4
66800.5
67119.3
67872.8
68899.3
70605.9
74336.6
90403.4
152799
408898
1.62379e+06
1.6442e+07
10307.7
27858.7
43169.6
54045.1
60506.3
63695.5
64926.8
65317.2
65423.2
65448.5
65453.8
65455
65455.3
65455.6
65455.9
65456.4
65456.9
65457.7
65458.5
65459.7
65461.1
65463
65465.3
65468.4
65472.1
65477.3
65484
65493.9
65508.4
65531.8
65569
65624.2
65689.1
65758.5
65834.3
65923.5
66037.2
66187.9
66397
66686.5
66957.9
67603.6
68475.7
70084.8
74436
96296.4
178044
479429
1.75255e+06
1.65915e+07
10309.5
27865.1
43184.2
54071.3
60569.9
63772.6
65008.1
65399.6
65505.5
65530.6
65535.9
65537
65537.3
65537.6
65537.9
65538.3
65538.8
65539.5
65540.3
65541.4
65542.7
65544.6
65546.7
65549.7
65553.3
65558.2
65564.4
65573
65584.6
65601.8
65626.6
65662.3
65708.5
65763.5
65828.3
65907.5
66009.8
66143.7
66328.7
66574.8
66806.2
67356.8
68120.4
69793.3
75288.2
104264
205758
548997
1.87759e+06
1.66979e+07
10311
27870.3
43195.3
54090
60617.1
63820.7
65054.7
65446
65551.7
65576.7
65581.9
65583
65583.3
65583.5
65583.7
65584.1
65584.5
65585.2
65585.9
65587
65588.2
65589.9
65591.9
65594.7
65598.1
65602.7
65608.5
65616.4
65626.6
65640.8
65659.9
65686.5
65721.3
65765.8
65821
65891.4
65982.3
66101.7
66262.8
66471.5
66678
67143
67852.1
69766.2
76980.7
105334
206648
535675
1.76447e+06
1.19998e+07
10312.3
27874.1
43203.1
54103.1
60650.1
63848.7
65078.4
65468.6
65574
65598.8
65604
65605
65605.3
65605.5
65605.7
65606
65606.4
65607
65607.7
65608.7
65609.8
65611.4
65613.3
65615.9
65619.2
65623.5
65629
65636.4
65645.7
65658.4
65674.8
65697.1
65726
65764.1
65812.2
65875.2
65956.1
66062.7
66202.4
66382.3
66567.8
66968.3
67687.7
70024.1
79255.2
114134
230159
581893
1.85505e+06
1.22859e+07
10313.3
27876.6
43208.1
54113.8
60672.4
63865
65090
65478.5
65583.4
65608.1
65613.2
65614.3
65614.5
65614.7
65614.9
65615.2
65615.6
65616.1
65616.8
65617.7
65618.8
65620.3
65622.1
65624.7
65627.8
65631.9
65637.1
65644.1
65652.9
65664.7
65679.6
65699.7
65725.3
65759.3
65802
65859.5
65930.3
66028.8
66141.4
66309.4
66468.3
66835.6
67658.4
70636.9
82288.6
124087
254335
622778
1.89453e+06
1.23034e+07
10314.1
27878.2
43210.9
54124.2
60688.5
63875.7
65096.1
65482.7
65587.1
65611.6
65616.7
65617.7
65617.9
65618.1
65618.3
65618.6
65619
65619.5
65620.1
65621
65622.1
65623.5
65625.3
65627.8
65630.8
65634.8
65639.8
65646.5
65654.8
65666
65679.9
65698.5
65721.9
65753
65791.5
65843.7
65906.6
65995.1
66092.1
66237.1
66469.1
66931.5
68411.9
74087.2
94784.2
162559
359627
916284
2.95428e+06
1.79872e+07
10314.6
27878.9
43211.5
54134.7
60703.2
63884.7
65100.2
65484.8
65588.6
65613
65618.1
65619.1
65619.3
65619.5
65619.7
65620
65620.3
65620.8
65621.5
65622.3
65623.4
65624.8
65626.6
65628.9
65631.9
65635.8
65640.6
65647
65655.1
65665.6
65678.8
65696.2
65717.9
65746.4
65781.7
65828.1
65885.1
65959.7
66051.6
66170.4
66375.7
66859.9
68557.5
75032.2
98111.1
171487
378727
951846
3.02654e+06
1.79872e+07
10315
27879
43210.2
54145.9
60720.1
63895
65105.1
65487.6
65590.8
65615.1
65620.1
65621.1
65621.3
65621.5
65621.7
65622
65622.4
65622.9
65623.5
65624.4
65625.4
65626.8
65628.6
65630.9
65633.8
65637.6
65642.3
65648.5
65656.3
65666.3
65678.9
65695.3
65715.7
65742.1
65774.6
65816.6
65867.5
65932
66011.9
66114.4
66308.8
66808
68632.3
75604.2
100138
176677
388423
964787
3.03894e+06
1.79872e+07
10315.7
27880.8
43210.3
54163.8
60746.5
63913.4
65117.8
65498.2
65600.8
65625
65630
65631
65631.3
65631.5
65631.7
65632
65632.4
65633
65633.7
65634.6
65635.7
65637.1
65639
65641.3
65644.3
65648.1
65652.9
65659
65666.7
65676.5
65688.9
65704.5
65724.1
65748.8
65779.4
65817.8
65865.2
65923
65996.1
66090.1
66268.4
66774.4
68688.3
76019.1
101591
180325
394966
972854
3.04577e+06
1.79872e+07
10320.4
27898.6
43234.7
54217.9
60815.7
63973.9
65172.4
65550.8
65653
65677.1
65682.2
65683.3
65683.8
65684.1
65684.5
65685
65685.6
65686.4
65687.4
65688.6
65690.1
65691.9
65694.3
65697.1
65700.6
65705
65710.5
65717.2
65725.7
65736.2
65749.3
65765.5
65785.6
65810.3
65840.8
65878
65923.5
65977.7
66045.8
66134.3
66307.6
66824.1
68816.8
76439.4
102831
183253
400021
978874
3.05072e+06
1.79872e+07
10345.9
27998.8
43394.8
54446
61078.9
64231.1
65425.3
65802.5
65904.5
65928.9
65934.4
65936
65936.9
65937.9
65939
65940.3
65941.9
65943.8
65946
65948.5
65951.7
65955.2
65959.6
65964.6
65970.7
65977.8
65986.6
65996.8
66009.4
66024.2
66042.2
66063.6
66089.6
66120.3
66157.5
66201
66253.6
66313.9
66388
66482.3
66661.1
67197.2
69262.6
77127.1
104173
185901
404263
983793
3.05482e+06
1.79872e+07
10463.8
28458.3
44152.6
55412.6
62151.1
65316.9
66513.2
66891
66993.9
67019.4
67026.5
67029.8
67032.8
67036.1
67040
67044.3
67049.5
67055.2
67062.1
67069.6
67078.7
67088.7
67100.6
67113.8
67129.6
67147.2
67168.1
67191.6
67219.5
67250.8
67288
67329.9
67379.4
67435.1
67500.7
67574
67659.8
67754.5
67865.9
67998.5
68218.7
68804.2
70953.3
79008.9
106513
189092
408343
987983
3.05811e+06
1.79872e+07
10947.2
30299.8
47175.9
59162.1
66223.7
69474.5
70691
71073.8
71180.1
71209.6
71221.6
71230.4
71240
71250.7
71263.2
71277.2
71293.5
71311.8
71333
71356.6
71384.1
71414.5
71450
71489.2
71534.9
71585.4
71644.1
71708.9
71784.3
71867.3
71963.6
72069.3
72191.6
72325
72478.6
72644.8
72834.2
73037
73266.2
73519.3
73864.9
74574.2
76843.2
85003.7
112580
195058
413666
992049
3.06085e+06
1.79872e+07
12754.7
36939.9
57748
72096.8
80051.7
83549.5
84818.7
85213.8
85328.9
85368.9
85393.6
85417
85443.7
85473.9
85509
85548.3
85594
85644.8
85703.7
85769.1
85844.7
85928.2
86024.9
86131.4
86254.4
86389.7
86545.7
86716.4
86913.2
87127.5
87373.7
87640.5
87945.4
88273.5
88645.5
89041.9
89486.2
89953.7
90469.4
91013.6
91658.8
92642.4
95108.5
103204
130031
210218
424333
997591
3.06336e+06
1.79872e+07
19186.3
59075.7
91389.5
111520
121317
125248
126591
127000
127131
127192
127243
127296
127359
127429
127511
127602
127708
127826
127962
128113
128287
128479
128701
128944
129223
129530
129882
130265
130704
131179
131721
132304
132966
133670
134463
135298
136225
137188
138236
139315
140504
141966
144700
152331
176671
249853
450657
1.00881e+06
3.06625e+06
1.79872e+07
42223.5
128592
187117
216370
228388
232631
233959
234355
234500
234590
234678
234775
234889
235018
235167
235333
235526
235739
235986
236259
236573
236919
237317
237753
238254
238799
239424
240101
240875
241707
242654
243664
244804
246009
247356
248762
250310
251903
253620
255360
257213
259226
262130
268555
287643
346131
517695
1.03868e+06
3.072e+06
1.79872e+07
129763
332618
429006
465108
477062
480676
481703
482013
482153
482264
482385
482520
482679
482857
483065
483296
483563
483859
484201
484578
485013
485488
486037
486633
487321
488064
488918
489835
490886
492004
493279
494625
496147
497736
499513
501346
503362
505411
507614
509815
512124
514460
517238
521785
533451
570082
692313
1.13404e+06
3.09385e+06
1.79872e+07
503538
933830
1.05055e+06
1.07932e+06
1.08643e+06
1.08822e+06
1.0887e+06
1.08889e+06
1.08902e+06
1.08915e+06
1.0893e+06
1.08947e+06
1.08967e+06
1.08989e+06
1.09015e+06
1.09044e+06
1.09078e+06
1.09115e+06
1.09158e+06
1.09204e+06
1.09259e+06
1.09318e+06
1.09387e+06
1.0946e+06
1.09546e+06
1.09637e+06
1.09744e+06
1.09856e+06
1.09986e+06
1.10122e+06
1.1028e+06
1.10442e+06
1.10629e+06
1.10819e+06
1.11036e+06
1.11254e+06
1.11497e+06
1.11738e+06
1.12001e+06
1.12258e+06
1.12528e+06
1.12789e+06
1.13064e+06
1.13376e+06
1.13921e+06
1.1546e+06
1.21571e+06
1.51213e+06
3.23464e+06
1.79872e+07
2.4527e+06
3.14885e+06
3.22432e+06
3.23368e+06
3.23521e+06
3.2356e+06
3.23582e+06
3.23602e+06
3.23625e+06
3.23651e+06
3.23682e+06
3.23717e+06
3.23759e+06
3.23803e+06
3.23858e+06
3.23915e+06
3.23985e+06
3.24059e+06
3.24148e+06
3.24242e+06
3.24355e+06
3.24472e+06
3.24614e+06
3.2476e+06
3.24937e+06
3.25118e+06
3.25337e+06
3.25558e+06
3.25826e+06
3.26092e+06
3.26414e+06
3.2673e+06
3.2711e+06
3.27479e+06
3.27916e+06
3.28336e+06
3.28823e+06
3.29286e+06
3.29807e+06
3.30296e+06
3.30826e+06
3.31314e+06
3.31819e+06
3.32276e+06
3.32747e+06
3.33306e+06
3.34828e+06
3.45018e+06
4.48367e+06
1.79872e+07
1.87595e+07
1.87595e+07
1.87595e+07
1.87595e+07
1.87595e+07
1.87595e+07
1.87595e+07
1.87595e+07
1.87595e+07
1.87595e+07
1.87595e+07
1.87595e+07
1.87595e+07
1.87595e+07
1.87595e+07
1.87595e+07
1.87595e+07
1.87595e+07
1.87595e+07
1.87595e+07
1.87595e+07
1.87595e+07
1.87595e+07
1.87595e+07
1.87595e+07
1.87595e+07
1.87595e+07
1.87595e+07
1.87595e+07
1.87595e+07
1.87595e+07
1.87595e+07
1.87595e+07
1.87595e+07
1.87595e+07
1.87595e+07
1.87595e+07
1.87595e+07
1.87595e+07
1.87595e+07
1.87595e+07
1.87595e+07
1.87595e+07
1.87595e+07
1.87595e+07
1.87595e+07
1.87595e+07
1.87595e+07
1.87595e+07
1.87595e+07
7.13078e+07
6.84527e+07
6.77584e+07
6.76773e+07
6.76672e+07
6.76661e+07
6.7666e+07
6.7666e+07
6.7666e+07
6.7666e+07
6.7666e+07
6.7666e+07
6.7666e+07
6.7666e+07
6.7666e+07
6.76659e+07
6.76645e+07
6.76541e+07
6.75711e+07
6.68132e+07
1.08949e+06
2.16796e+06
2.86302e+06
3.14476e+06
3.25251e+06
3.29511e+06
3.31242e+06
3.31955e+06
3.32249e+06
3.32371e+06
3.32421e+06
3.32441e+06
3.3245e+06
3.32453e+06
3.32455e+06
3.32454e+06
3.32446e+06
3.32385e+06
3.31919e+06
3.28943e+06
1.04461e+07
1.22203e+07
1.19774e+07
1.19407e+07
1.19433e+07
1.19476e+07
1.19499e+07
1.1951e+07
1.19514e+07
1.19516e+07
1.19517e+07
1.19517e+07
1.19517e+07
1.19517e+07
1.19517e+07
1.19516e+07
1.19506e+07
1.19425e+07
1.188e+07
1.13887e+07
1.87595e+07
1.87595e+07
1.87595e+07
1.87595e+07
1.87595e+07
1.87595e+07
1.87595e+07
1.87595e+07
1.87595e+07
1.87595e+07
1.87595e+07
1.87595e+07
1.87595e+07
1.87595e+07
1.87595e+07
1.87595e+07
1.87595e+07
1.87595e+07
1.87595e+07
1.87595e+07
1.87595e+07
1.87595e+07
1.87595e+07
1.87595e+07
1.87595e+07
1.87595e+07
1.87595e+07
1.87595e+07
1.87595e+07
1.87595e+07
1.87595e+07
1.87595e+07
1.87595e+07
1.87595e+07
1.87595e+07
1.87595e+07
1.87595e+07
1.87595e+07
1.87595e+07
1.87595e+07
1.87595e+07
1.87595e+07
1.87595e+07
1.87595e+07
1.87595e+07
1.87595e+07
1.87595e+07
1.87595e+07
1.87595e+07
1.87595e+07
1.87595e+07
1.87595e+07
1.87595e+07
1.87595e+07
1.87595e+07
1.87595e+07
1.87595e+07
1.87595e+07
1.87595e+07
1.87595e+07
1.87595e+07
1.87595e+07
1.87595e+07
1.87595e+07
1.87595e+07
1.87595e+07
1.87595e+07
1.87595e+07
1.87595e+07
1.87595e+07
1.87595e+07
1.87595e+07
1.87595e+07
1.87595e+07
1.87595e+07
1.87595e+07
1.87595e+07
1.87595e+07
1.87595e+07
1.87595e+07
1.87595e+07
1.87595e+07
1.87595e+07
1.87595e+07
1.87595e+07
1.87595e+07
1.87595e+07
1.87595e+07
1.87595e+07
1.87595e+07
1.87595e+07
1.87595e+07
1.87595e+07
1.87595e+07
1.87595e+07
1.87595e+07
1.87595e+07
1.87595e+07
1.87595e+07
1.87595e+07
1.79872e+07
4.48056e+06
3.34647e+06
3.22586e+06
3.2093e+06
3.20682e+06
3.20716e+06
3.20828e+06
3.20968e+06
3.21119e+06
3.21273e+06
3.21427e+06
3.21578e+06
3.21725e+06
3.21866e+06
3.21999e+06
3.22125e+06
3.22243e+06
3.22352e+06
3.22454e+06
3.22546e+06
3.22631e+06
3.22708e+06
3.22779e+06
3.22842e+06
3.229e+06
3.22951e+06
3.22998e+06
3.23039e+06
3.23076e+06
3.23109e+06
3.23139e+06
3.23165e+06
3.23189e+06
3.23209e+06
3.23228e+06
3.23244e+06
3.23259e+06
3.23271e+06
3.23283e+06
3.23293e+06
3.23302e+06
3.23311e+06
3.23316e+06
3.23325e+06
3.23327e+06
3.23337e+06
3.23335e+06
3.23347e+06
3.23341e+06
3.23355e+06
3.23345e+06
3.23361e+06
3.23349e+06
3.23365e+06
3.23352e+06
3.23368e+06
3.23356e+06
3.23371e+06
3.23359e+06
3.23371e+06
3.23361e+06
3.23371e+06
3.23363e+06
3.23371e+06
3.23365e+06
3.2337e+06
3.23366e+06
3.2337e+06
3.23367e+06
3.2337e+06
3.23368e+06
3.2337e+06
3.23369e+06
3.2337e+06
3.23369e+06
3.2337e+06
3.2337e+06
3.2337e+06
3.2337e+06
3.2337e+06
3.2337e+06
3.2337e+06
3.2337e+06
3.2337e+06
3.2337e+06
3.23371e+06
3.2337e+06
3.23371e+06
3.23371e+06
3.23371e+06
3.23371e+06
3.23371e+06
3.23371e+06
3.23371e+06
3.23371e+06
3.23371e+06
3.23371e+06
3.23371e+06
3.23371e+06
1.79872e+07
3.34047e+06
1.51153e+06
1.16713e+06
1.08475e+06
1.06188e+06
1.05592e+06
1.05548e+06
1.0567e+06
1.0585e+06
1.06047e+06
1.06246e+06
1.06441e+06
1.06631e+06
1.06814e+06
1.06987e+06
1.07151e+06
1.07304e+06
1.07447e+06
1.07578e+06
1.07699e+06
1.0781e+06
1.07911e+06
1.08002e+06
1.08085e+06
1.0816e+06
1.08227e+06
1.08288e+06
1.08342e+06
1.08391e+06
1.08434e+06
1.08473e+06
1.08507e+06
1.08538e+06
1.08565e+06
1.0859e+06
1.08611e+06
1.0863e+06
1.08647e+06
1.08662e+06
1.08675e+06
1.08687e+06
1.08698e+06
1.08706e+06
1.08716e+06
1.08721e+06
1.08731e+06
1.08732e+06
1.08743e+06
1.0874e+06
1.08753e+06
1.08747e+06
1.0876e+06
1.08752e+06
1.08765e+06
1.08756e+06
1.08768e+06
1.0876e+06
1.08771e+06
1.08764e+06
1.08772e+06
1.08766e+06
1.08773e+06
1.08769e+06
1.08774e+06
1.08771e+06
1.08774e+06
1.08772e+06
1.08775e+06
1.08773e+06
1.08775e+06
1.08774e+06
1.08776e+06
1.08775e+06
1.08776e+06
1.08775e+06
1.08776e+06
1.08776e+06
1.08776e+06
1.08776e+06
1.08776e+06
1.08776e+06
1.08777e+06
1.08776e+06
1.08777e+06
1.08777e+06
1.08777e+06
1.08777e+06
1.08777e+06
1.08777e+06
1.08777e+06
1.08777e+06
1.08777e+06
1.08777e+06
1.08777e+06
1.08777e+06
1.08777e+06
1.08777e+06
1.08777e+06
1.08777e+06
1.79872e+07
3.22741e+06
1.18614e+06
693724
534212
476367
456522
451242
451098
452382
454191
456100
457998
459847
461629
463329
464936
466446
467852
469155
470355
471457
472462
473377
474205
474955
475629
476238
476782
477272
477706
478098
478442
478754
479026
479274
479487
479683
479851
480004
480137
480255
480365
480451
480547
480603
480696
480719
480816
480807
480907
480873
480977
480927
481026
480971
481060
481010
481084
481042
481102
481068
481115
481089
481125
481106
481134
481120
481140
481130
481145
481138
481149
481145
481152
481149
481155
481153
481157
481156
481159
481158
481160
481160
481161
481161
481162
481162
481163
481163
481163
481164
481164
481164
481164
481164
481165
481165
481165
481165
1.79872e+07
3.21657e+06
1.11977e+06
560750
349268
260857
226640
215578
213170
213482
214542
215832
217148
218440
219692
220891
222030
223104
224109
225043
225906
226701
227428
228092
228694
229240
229732
230177
230575
230934
231252
231540
231793
232023
232223
232405
232563
232707
232831
232944
233042
233130
233210
233275
233344
233388
233453
233475
233541
233541
233608
233590
233658
233631
233695
233664
233720
233692
233739
233715
233752
233734
233763
233749
233771
233761
233778
233771
233783
233778
233787
233784
233790
233788
233793
233791
233795
233794
233797
233796
233798
233798
233799
233799
233800
233800
233801
233801
233801
233801
233802
233802
233802
233802
233802
233802
233803
233803
233803
233803
1.79872e+07
3.21866e+06
1.10634e+06
522475
285897
180032
136640
121458
117184
116513
116823
117409
118059
118710
119344
119956
120541
121095
121615
122102
122554
122971
123354
123705
124024
124314
124576
124813
125026
125218
125389
125544
125680
125803
125911
126009
126094
126172
126238
126300
126353
126400
126443
126479
126515
126540
126574
126588
126622
126623
126658
126650
126686
126672
126705
126690
126719
126705
126729
126717
126736
126727
126742
126736
126747
126742
126750
126747
126753
126751
126755
126754
126757
126756
126759
126758
126760
126760
126761
126761
126762
126761
126762
126762
126763
126763
126763
126763
126763
126763
126764
126764
126764
126764
126764
126764
126764
126764
126764
126764
1.79872e+07
3.22413e+06
1.10544e+06
513553
267207
153530
105603
88190.6
82821.7
81500.7
81358.8
81500.8
81724.9
81964.2
82202.1
82434.8
82659.7
82875.3
83079.9
83272.7
83453
83620.7
83775.6
83918.2
84048.5
84167.5
84275.4
84373.4
84461.5
84541.2
84612.3
84676.7
84733.6
84785.2
84830.3
84871.5
84907.1
84939.9
84967.8
84993.7
85015.8
85036.1
85053.7
85069.2
85084.1
85095
85108.9
85115.1
85129.5
85130.2
85145
85141.3
85156.5
85150.4
85164.6
85158.1
85170.3
85164.6
85174.5
85169.9
85177.7
85174.2
85180.2
85177.6
85182.1
85180.3
85183.7
85182.4
85184.9
85184.1
85185.9
85185.3
85186.7
85186.3
85187.3
85187.1
85187.8
85187.7
85188.2
85188.1
85188.5
85188.5
85188.8
85188.8
85189
85189
85189.2
85189.2
85189.3
85189.3
85189.4
85189.4
85189.5
85189.5
85189.6
85189.6
85189.6
85189.6
85189.7
85189.8
1.79872e+07
3.23103e+06
1.10827e+06
513546
263804
146948
96777.8
78166.2
72203.7
70550.8
70168.9
70116.1
70142.7
70190
70244
70300.6
70358.4
70416.3
70473.5
70529
70582.4
70633.2
70680.9
70725.7
70767.1
70805.5
70840.6
70872.7
70901.9
70928.4
70952.3
70973.9
70993.2
71010.7
71026.1
71040.2
71052.4
71063.6
71073.2
71082.2
71089.7
71096.8
71102.8
71108.3
71113.3
71117.3
71122
71124.3
71129.3
71129.6
71134.9
71133.3
71138.8
71136.4
71141.5
71139.1
71143.5
71141.4
71144.9
71143.3
71146
71144.8
71146.9
71146
71147.6
71146.9
71148.1
71147.7
71148.5
71148.3
71148.9
71148.7
71149.2
71149
71149.4
71149.3
71149.5
71149.5
71149.7
71149.7
71149.8
71149.8
71149.9
71149.9
71150
71150
71150
71150
71150.1
71150.1
71150.1
71150.1
71150.1
71150.1
71150.2