/*--------------------------------*- C++ -*----------------------------------*\
| =========                 |                                                 |
| \\      /  F ield         | foam-extend: Open Source CFD                    |
|  \\    /   O peration     | Version:     4.0                                |
|   \\  /    A nd           | Web:         http://www.foam-extend.org         |
|    \\/     M anipulation  |                                                 |
\*---------------------------------------------------------------------------*/
FoamFile
{
    version     2.0;
    format      ascii;
    class       volScalarField;
    location    "3e-05";
    object      pd;
}
// * * * * * * * * * * * * * * * * * * * * * * * * * * * * * * * * * * * * * //

dimensions      [1 -1 -2 0 0 0 0];

internalField   nonuniform List<scalar> 
28770
(
1.06582e+07
1.03054e+07
1.10072e+07
9.96393e+06
1.13375e+07
9.64815e+06
1.16354e+07
9.37067e+06
1.18896e+07
9.14147e+06
1.20916e+07
8.96738e+06
1.22363e+07
8.85177e+06
1.2322e+07
8.79453e+06
1.23503e+07
8.79242e+06
1.2326e+07
8.8395e+06
1.2256e+07
8.92783e+06
1.21488e+07
9.04828e+06
1.20137e+07
9.1912e+06
1.18604e+07
9.34719e+06
1.16977e+07
9.50769e+06
1.15334e+07
9.66537e+06
1.1374e+07
9.81446e+06
1.12244e+07
9.95082e+06
1.1088e+07
1.0072e+07
1.09666e+07
1.0177e+07
1.08608e+07
1.02664e+07
1.077e+07
1.03417e+07
1.06928e+07
1.04058e+07
1.06267e+07
1.04623e+07
1.05687e+07
1.05152e+07
1.06579e+07
1.03051e+07
1.10068e+07
9.96366e+06
1.1337e+07
9.64791e+06
1.16348e+07
9.37047e+06
1.1889e+07
9.14133e+06
1.20909e+07
8.96735e+06
1.22355e+07
8.8519e+06
1.23211e+07
8.79491e+06
1.23496e+07
8.79315e+06
1.23255e+07
8.84073e+06
1.2256e+07
8.92979e+06
1.21497e+07
9.05124e+06
1.20162e+07
9.19559e+06
1.18652e+07
9.35363e+06
1.17058e+07
9.51705e+06
1.15462e+07
9.67889e+06
1.13931e+07
9.83379e+06
1.12517e+07
9.97806e+06
1.11254e+07
1.01095e+07
1.10159e+07
1.02271e+07
1.09233e+07
1.03305e+07
1.08461e+07
1.04202e+07
1.07815e+07
1.04971e+07
1.07255e+07
1.05632e+07
1.06735e+07
1.06208e+07
1.06586e+07
1.03058e+07
1.10075e+07
9.96433e+06
1.13378e+07
9.6486e+06
1.16357e+07
9.37115e+06
1.189e+07
9.14198e+06
1.2092e+07
8.9679e+06
1.22366e+07
8.85225e+06
1.23222e+07
8.79491e+06
1.23504e+07
8.79261e+06
1.23257e+07
8.83936e+06
1.2255e+07
8.92718e+06
1.21467e+07
9.04683e+06
1.201e+07
9.18855e+06
1.18542e+07
9.34274e+06
1.16879e+07
9.50055e+06
1.15187e+07
9.65427e+06
1.13528e+07
9.79769e+06
1.11947e+07
9.92622e+06
1.10478e+07
1.0037e+07
1.09139e+07
1.01293e+07
1.07944e+07
1.02039e+07
1.06897e+07
1.0264e+07
1.05997e+07
1.03141e+07
1.05237e+07
1.03598e+07
1.04601e+07
1.04068e+07
1.06575e+07
1.03049e+07
1.10064e+07
9.96352e+06
1.13364e+07
9.64788e+06
1.16341e+07
9.37056e+06
1.18881e+07
9.14158e+06
1.20898e+07
8.9678e+06
1.22342e+07
8.85263e+06
1.23197e+07
8.79602e+06
1.23481e+07
8.79475e+06
1.23242e+07
8.84299e+06
1.2255e+07
8.93292e+06
1.21495e+07
9.05555e+06
1.20172e+07
9.20148e+06
1.18683e+07
9.36171e+06
1.17119e+07
9.52817e+06
1.15567e+07
9.69428e+06
1.14096e+07
9.85517e+06
1.12762e+07
1.00077e+07
1.11601e+07
1.015e+07
1.10631e+07
1.02813e+07
1.09849e+07
1.04003e+07
1.0923e+07
1.05059e+07
1.08733e+07
1.05969e+07
1.08298e+07
1.06731e+07
1.07859e+07
1.07352e+07
1.06589e+07
1.03062e+07
1.10078e+07
9.96486e+06
1.1338e+07
9.64924e+06
1.16359e+07
9.37192e+06
1.18901e+07
9.14287e+06
1.2092e+07
8.9689e+06
1.22366e+07
8.85334e+06
1.2322e+07
8.79606e+06
1.23498e+07
8.79374e+06
1.23247e+07
8.84038e+06
1.22532e+07
8.92794e+06
1.21437e+07
9.0471e+06
1.20052e+07
9.18797e+06
1.18467e+07
9.34074e+06
1.16768e+07
9.49626e+06
1.15025e+07
9.64641e+06
1.13297e+07
9.78438e+06
1.11626e+07
9.90496e+06
1.10042e+07
1.00047e+07
1.08563e+07
1.00825e+07
1.07209e+07
1.01398e+07
1.05998e+07
1.01811e+07
1.04945e+07
1.02133e+07
1.04063e+07
1.02446e+07
1.03362e+07
1.02834e+07
1.06572e+07
1.03047e+07
1.10059e+07
9.96353e+06
1.13358e+07
9.64806e+06
1.16332e+07
9.37093e+06
1.1887e+07
9.14219e+06
1.20884e+07
8.96871e+06
1.22326e+07
8.85392e+06
1.23179e+07
8.79779e+06
1.23461e+07
8.79715e+06
1.23221e+07
8.84618e+06
1.2253e+07
8.93712e+06
1.21479e+07
9.06105e+06
1.20166e+07
9.20868e+06
1.18693e+07
9.37115e+06
1.17155e+07
9.54069e+06
1.15641e+07
9.7111e+06
1.14226e+07
9.8781e+06
1.1297e+07
1.00393e+07
1.11915e+07
1.01939e+07
1.11084e+07
1.03414e+07
1.10473e+07
1.048e+07
1.10047e+07
1.06058e+07
1.09749e+07
1.07148e+07
1.09494e+07
1.0804e+07
1.09178e+07
1.08712e+07
1.06592e+07
1.03067e+07
1.1008e+07
9.9655e+06
1.13381e+07
9.65006e+06
1.16359e+07
9.37293e+06
1.18899e+07
9.14409e+06
1.20917e+07
8.97034e+06
1.2236e+07
8.85501e+06
1.23212e+07
8.79795e+06
1.23487e+07
8.79582e+06
1.23229e+07
8.8426e+06
1.22505e+07
8.93023e+06
1.21397e+07
9.0493e+06
1.19994e+07
9.18981e+06
1.18383e+07
9.34177e+06
1.16647e+07
9.4957e+06
1.14853e+07
9.64298e+06
1.13055e+07
9.77609e+06
1.11288e+07
9.88877e+06
1.09573e+07
9.97646e+06
1.07927e+07
1.0037e+07
1.06372e+07
1.00721e+07
1.04948e+07
1.0088e+07
1.03688e+07
1.00947e+07
1.02633e+07
1.01049e+07
1.01834e+07
1.01315e+07
1.0657e+07
1.03046e+07
1.10054e+07
9.96366e+06
1.1335e+07
9.64841e+06
1.16322e+07
9.37155e+06
1.18857e+07
9.14311e+06
1.20868e+07
8.97002e+06
1.22306e+07
8.8557e+06
1.23155e+07
8.80016e+06
1.23434e+07
8.80026e+06
1.23191e+07
8.8502e+06
1.225e+07
8.94228e+06
1.2145e+07
9.06761e+06
1.20141e+07
9.21702e+06
1.18677e+07
9.38179e+06
1.17157e+07
9.55436e+06
1.15671e+07
9.72893e+06
1.14302e+07
9.90189e+06
1.13118e+07
1.00721e+07
1.12171e+07
1.02403e+07
1.11498e+07
1.04081e+07
1.11101e+07
1.05735e+07
1.10935e+07
1.07271e+07
1.10925e+07
1.08617e+07
1.10946e+07
1.09697e+07
1.10832e+07
1.1044e+07
1.06596e+07
1.03072e+07
1.10082e+07
9.96622e+06
1.13381e+07
9.65101e+06
1.16357e+07
9.37415e+06
1.18895e+07
9.1456e+06
1.20911e+07
8.97218e+06
1.22351e+07
8.8572e+06
1.23199e+07
8.80052e+06
1.23469e+07
8.7988e+06
1.23205e+07
8.84602e+06
1.22472e+07
8.93409e+06
1.2135e+07
9.05358e+06
1.19929e+07
9.19441e+06
1.18293e+07
9.34646e+06
1.16521e+07
9.49996e+06
1.14678e+07
9.64574e+06
1.12812e+07
9.77535e+06
1.10946e+07
9.88108e+06
1.09088e+07
9.95618e+06
1.07237e+07
9.99612e+06
1.05415e+07
1.00014e+07
1.03701e+07
9.98114e+06
1.02143e+07
9.94945e+06
1.00819e+07
9.92653e+06
9.98518e+06
9.93378e+06
1.06567e+07
1.03046e+07
1.10049e+07
9.9639e+06
1.13342e+07
9.64893e+06
1.16312e+07
9.37237e+06
1.18842e+07
9.1443e+06
1.2085e+07
8.97165e+06
1.22283e+07
8.85789e+06
1.23128e+07
8.80303e+06
1.23402e+07
8.80396e+06
1.23154e+07
8.85493e+06
1.22458e+07
8.94826e+06
1.21405e+07
9.07514e+06
1.20094e+07
9.22644e+06
1.18631e+07
9.39354e+06
1.17115e+07
9.56903e+06
1.15642e+07
9.74738e+06
1.14299e+07
9.92558e+06
1.13166e+07
1.01038e+07
1.12317e+07
1.0286e+07
1.11817e+07
1.04788e+07
1.11695e+07
1.06841e+07
1.11881e+07
1.08773e+07
1.12302e+07
1.105e+07
1.12775e+07
1.1188e+07
1.13006e+07
1.12741e+07
1.06598e+07
1.03077e+07
1.10082e+07
9.96699e+06
1.13379e+07
9.65206e+06
1.16353e+07
9.37551e+06
1.18889e+07
9.14733e+06
1.20902e+07
8.97432e+06
1.22339e+07
8.85982e+06
1.23183e+07
8.80368e+06
1.23447e+07
8.80259e+06
1.23175e+07
8.85055e+06
1.22432e+07
8.93949e+06
1.21298e+07
9.06002e+06
1.19858e+07
9.20206e+06
1.18198e+07
9.35544e+06
1.16394e+07
9.51021e+06
1.14509e+07
9.65678e+06
1.12583e+07
9.78575e+06
1.1063e+07
9.88745e+06
1.0863e+07
9.95158e+06
1.06535e+07
9.96807e+06
1.04335e+07
9.93236e+06
1.02232e+07
9.86009e+06
1.00238e+07
9.76841e+06
9.84632e+06
9.69064e+06
9.71873e+06
9.66589e+06
1.06565e+07
1.03047e+07
1.10044e+07
9.96423e+06
1.13334e+07
9.64955e+06
1.163e+07
9.37334e+06
1.18827e+07
9.14569e+06
1.2083e+07
8.97353e+06
1.22259e+07
8.86037e+06
1.23098e+07
8.80627e+06
1.23366e+07
8.80812e+06
1.23111e+07
8.86023e+06
1.22407e+07
8.95495e+06
1.21344e+07
9.08352e+06
1.20024e+07
9.23688e+06
1.18548e+07
9.40644e+06
1.1702e+07
9.5848e+06
1.15534e+07
9.7664e+06
1.14183e+07
9.94827e+06
1.13057e+07
1.01314e+07
1.1226e+07
1.03232e+07
1.11918e+07
1.05426e+07
1.12165e+07
1.08155e+07
1.12808e+07
1.10624e+07
1.1388e+07
1.12928e+07
1.15122e+07
1.14828e+07
1.15962e+07
1.15916e+07
1.06601e+07
1.03082e+07
1.10083e+07
9.96778e+06
1.13377e+07
9.65316e+06
1.16348e+07
9.37697e+06
1.18882e+07
9.1492e+06
1.20892e+07
8.97667e+06
1.22325e+07
8.86273e+06
1.23164e+07
8.80728e+06
1.23422e+07
8.80703e+06
1.23142e+07
8.85602e+06
1.22389e+07
8.94628e+06
1.21241e+07
9.06852e+06
1.19784e+07
9.21278e+06
1.18102e+07
9.36901e+06
1.16271e+07
9.52738e+06
1.14352e+07
9.67818e+06
1.12386e+07
9.81145e+06
1.1038e+07
9.91569e+06
1.08281e+07
9.97588e+06
1.05938e+07
9.97069e+06
1.03128e+07
9.87616e+06
1.0056e+07
9.73133e+06
9.79483e+06
9.54327e+06
9.53731e+06
9.36988e+06
9.34888e+06
9.28899e+06
1.06563e+07
1.03048e+07
1.10039e+07
9.96461e+06
1.13327e+07
9.65025e+06
1.16289e+07
9.3744e+06
1.18812e+07
9.14718e+06
1.2081e+07
8.97555e+06
1.22234e+07
8.86303e+06
1.23066e+07
8.80972e+06
1.23326e+07
8.81256e+06
1.23062e+07
8.8659e+06
1.22347e+07
8.96215e+06
1.2127e+07
9.09263e+06
1.1993e+07
9.24833e+06
1.18429e+07
9.42068e+06
1.16866e+07
9.60218e+06
1.15334e+07
9.78685e+06
1.13921e+07
9.97065e+06
1.12723e+07
1.01525e+07
1.11862e+07
1.03387e+07
1.11558e+07
1.05631e+07
1.1238e+07
1.09839e+07
1.1351e+07
1.12815e+07
1.15552e+07
1.16004e+07
1.18181e+07
1.18888e+07
1.20137e+07
1.2046e+07
1.06603e+07
1.03087e+07
1.10082e+07
9.96855e+06
1.13374e+07
9.65425e+06
1.16343e+07
9.37843e+06
1.18874e+07
9.1511e+06
1.2088e+07
8.97909e+06
1.22309e+07
8.86578e+06
1.23143e+07
8.81111e+06
1.23395e+07
8.81186e+06
1.23107e+07
8.86214e+06
1.22343e+07
8.95413e+06
1.21182e+07
9.07871e+06
1.19708e+07
9.22622e+06
1.18005e+07
9.38698e+06
1.16149e+07
9.55164e+06
1.14206e+07
9.7111e+06
1.12224e+07
9.85587e+06
1.10227e+07
9.97446e+06
1.08175e+07
1.00491e+07
1.05789e+07
1.00429e+07
1.01665e+07
9.8496e+06
9.88301e+06
9.61925e+06
9.54201e+06
9.27172e+06
9.13137e+06
8.92165e+06
8.8174e+06
8.73583e+06
1.06561e+07
1.03049e+07
1.10035e+07
9.96501e+06
1.13319e+07
9.65096e+06
1.16278e+07
9.37547e+06
1.18797e+07
9.14868e+06
1.20791e+07
8.97757e+06
1.22209e+07
8.8657e+06
1.23035e+07
8.8132e+06
1.23286e+07
8.81707e+06
1.23011e+07
8.8717e+06
1.22282e+07
8.96961e+06
1.21185e+07
9.10221e+06
1.19818e+07
9.26063e+06
1.18278e+07
9.43641e+06
1.16657e+07
9.62202e+06
1.15041e+07
9.811e+06
1.13505e+07
9.99741e+06
1.12123e+07
1.01739e+07
1.10976e+07
1.03252e+07
1.10145e+07
1.04065e+07
1.03557e+07
1.12384e+07
1.12776e+07
1.1293e+07
1.13703e+07
1.1451e+07
1.15531e+07
1.16339e+07
1.17057e+07
1.17376e+07
1.06605e+07
1.03092e+07
1.10082e+07
9.96927e+06
1.13372e+07
9.65528e+06
1.16338e+07
9.37982e+06
1.18865e+07
9.15292e+06
1.20868e+07
8.98144e+06
1.22293e+07
8.86878e+06
1.23122e+07
8.81494e+06
1.23368e+07
8.81677e+06
1.23072e+07
8.86851e+06
1.22298e+07
8.9625e+06
1.21123e+07
9.08991e+06
1.19632e+07
9.24152e+06
1.17907e+07
9.40828e+06
1.16025e+07
9.58179e+06
1.14055e+07
9.75438e+06
1.12061e+07
9.91878e+06
1.10121e+07
1.00673e+07
1.08386e+07
1.01911e+07
1.07306e+07
1.02837e+07
1.02138e+07
1.12172e+07
1.12375e+07
1.12758e+07
1.13677e+07
1.15218e+07
1.16642e+07
1.17915e+07
1.18974e+07
1.19567e+07
1.0656e+07
1.0305e+07
1.10031e+07
9.9654e+06
1.13313e+07
9.65165e+06
1.16269e+07
9.37649e+06
1.18784e+07
9.1501e+06
1.20773e+07
8.97948e+06
1.22186e+07
8.86823e+06
1.23005e+07
8.8165e+06
1.23248e+07
8.82137e+06
1.22961e+07
8.8773e+06
1.22215e+07
8.97692e+06
1.21096e+07
9.11182e+06
1.19696e+07
9.27335e+06
1.18106e+07
9.45337e+06
1.1641e+07
9.64475e+06
1.14679e+07
9.8414e+06
1.12969e+07
1.00376e+07
1.11322e+07
1.02256e+07
1.09777e+07
1.03905e+07
1.08378e+07
1.04998e+07
1.01568e+07
1.11528e+07
1.11543e+07
1.11855e+07
1.12908e+07
1.15992e+07
1.17955e+07
1.1984e+07
1.21545e+07
1.22652e+07
1.06607e+07
1.03095e+07
1.10081e+07
9.9699e+06
1.13369e+07
9.65619e+06
1.16333e+07
9.38106e+06
1.18857e+07
9.15456e+06
1.20857e+07
8.98356e+06
1.22279e+07
8.87153e+06
1.23103e+07
8.81849e+06
1.23343e+07
8.82138e+06
1.23039e+07
8.87459e+06
1.22256e+07
8.97067e+06
1.21068e+07
9.10113e+06
1.19558e+07
9.25726e+06
1.17808e+07
9.43087e+06
1.15892e+07
9.61487e+06
1.13876e+07
9.80366e+06
1.11819e+07
9.99316e+06
1.09795e+07
1.01804e+07
1.07932e+07
1.03623e+07
1.06497e+07
1.05324e+07
1.00908e+07
1.10399e+07
1.1014e+07
1.09996e+07
1.10012e+07
1.02126e+07
9.98529e+06
9.81854e+06
9.67572e+06
9.58983e+06
1.06559e+07
1.03052e+07
1.10028e+07
9.96575e+06
1.13307e+07
9.65224e+06
1.1626e+07
9.37737e+06
1.18773e+07
9.15133e+06
1.20758e+07
8.98114e+06
1.22166e+07
8.87043e+06
1.22979e+07
8.8194e+06
1.23213e+07
8.82517e+06
1.22916e+07
8.8823e+06
1.22154e+07
8.98357e+06
1.21012e+07
9.12076e+06
1.19577e+07
9.28557e+06
1.17934e+07
9.4704e+06
1.16155e+07
9.66896e+06
1.14295e+07
9.87666e+06
1.12382e+07
1.00903e+07
1.1042e+07
1.0307e+07
1.08394e+07
1.05212e+07
1.06305e+07
1.07193e+07
1.00483e+07
1.08925e+07
1.08313e+07
1.07701e+07
1.07108e+07
1.02743e+07
1.00573e+07
9.7755e+06
9.4563e+06
9.22457e+06
1.06608e+07
1.03098e+07
1.10081e+07
9.97041e+06
1.13366e+07
9.65693e+06
1.16328e+07
9.38207e+06
1.18851e+07
9.1559e+06
1.20848e+07
8.98532e+06
1.22266e+07
8.87381e+06
1.23087e+07
8.82147e+06
1.23321e+07
8.82531e+06
1.23012e+07
8.87984e+06
1.22219e+07
8.97784e+06
1.21019e+07
9.11115e+06
1.19492e+07
9.27161e+06
1.17716e+07
9.45195e+06
1.1576e+07
9.64653e+06
1.13677e+07
9.85215e+06
1.11506e+07
1.00686e+07
1.09272e+07
1.0299e+07
1.07e+07
1.05494e+07
1.04727e+07
1.08252e+07
9.99329e+06
1.07135e+07
1.06162e+07
1.05089e+07
1.04014e+07
1.04029e+07
1.01834e+07
9.75258e+06
9.13054e+06
8.69467e+06
1.06559e+07
1.03053e+07
1.10026e+07
9.96602e+06
1.13303e+07
9.6527e+06
1.16254e+07
9.37806e+06
1.18764e+07
9.15228e+06
1.20747e+07
8.98243e+06
1.22151e+07
8.87214e+06
1.22958e+07
8.82166e+06
1.23186e+07
8.82817e+06
1.2288e+07
8.8863e+06
1.22105e+07
8.98896e+06
1.20942e+07
9.12816e+06
1.19476e+07
9.29595e+06
1.17785e+07
9.48537e+06
1.15931e+07
9.69126e+06
1.13949e+07
9.91103e+06
1.1184e+07
1.01454e+07
1.09559e+07
1.03987e+07
1.0701e+07
1.06796e+07
1.04052e+07
1.10013e+07
9.95166e+06
1.05163e+07
1.03786e+07
1.02181e+07
1.0047e+07
1.06378e+07
1.05146e+07
1.00501e+07
8.6474e+06
7.94369e+06
1.06609e+07
1.03101e+07
1.1008e+07
9.97076e+06
1.13365e+07
9.65745e+06
1.16325e+07
9.38279e+06
1.18846e+07
9.15685e+06
1.20841e+07
8.98657e+06
1.22257e+07
8.87545e+06
1.23075e+07
8.82362e+06
1.23306e+07
8.82817e+06
1.22991e+07
8.88371e+06
1.22192e+07
8.98318e+06
1.20983e+07
9.11872e+06
1.19441e+07
9.28263e+06
1.17643e+07
9.4684e+06
1.15648e+07
9.67171e+06
1.13498e+07
9.89157e+06
1.11203e+07
1.01316e+07
1.0873e+07
1.04017e+07
1.05984e+07
1.07205e+07
1.02769e+07
1.11179e+07
9.91636e+06
1.03114e+07
1.0132e+07
9.90909e+06
9.6464e+06
1.0962e+07
1.108e+07
1.12521e+07
9.59725e+06
1.18955e+07
1.06558e+07
1.03053e+07
1.10024e+07
9.96619e+06
1.13301e+07
9.653e+06
1.1625e+07
9.37849e+06
1.18758e+07
9.15289e+06
1.20739e+07
8.98325e+06
1.22141e+07
8.87324e+06
1.22945e+07
8.82312e+06
1.23169e+07
8.8301e+06
1.22856e+07
8.8889e+06
1.22072e+07
8.9925e+06
1.20896e+07
9.13309e+06
1.19409e+07
9.30301e+06
1.17684e+07
9.4958e+06
1.15776e+07
9.70724e+06
1.13706e+07
9.93653e+06
1.11451e+07
1.01878e+07
1.08923e+07
1.04722e+07
1.05943e+07
1.08121e+07
1.02192e+07
1.1249e+07
9.91137e+06
1.01179e+07
9.89926e+06
9.61194e+06
9.24151e+06
1.12999e+07
1.16443e+07
1.2081e+07
1.01483e+07
1.11609e+07
1.0661e+07
1.03102e+07
1.10081e+07
9.971e+06
1.13364e+07
9.65777e+06
1.16324e+07
9.38321e+06
1.18844e+07
9.15739e+06
1.20839e+07
8.98726e+06
1.22254e+07
8.87634e+06
1.2307e+07
8.82477e+06
1.23299e+07
8.82968e+06
1.22982e+07
8.88574e+06
1.22178e+07
8.98598e+06
1.20963e+07
9.12271e+06
1.19413e+07
9.2885e+06
1.176e+07
9.4773e+06
1.15581e+07
9.68558e+06
1.13387e+07
9.91373e+06
1.11009e+07
1.01679e+07
1.08376e+07
1.04627e+07
1.05313e+07
1.08265e+07
1.01457e+07
1.13107e+07
9.93778e+06
9.95546e+06
9.70942e+06
9.37205e+06
8.90988e+06
1.15827e+07
1.21135e+07
1.28522e+07
9.43173e+06
9.12955e+06
1.06558e+07
1.03053e+07
1.10023e+07
9.9662e+06
1.13299e+07
9.65305e+06
1.16248e+07
9.3786e+06
1.18756e+07
9.15306e+06
1.20736e+07
8.9835e+06
1.22136e+07
8.8736e+06
1.2294e+07
8.82362e+06
1.23162e+07
8.8308e+06
1.22846e+07
8.88987e+06
1.22059e+07
8.99385e+06
1.20879e+07
9.135e+06
1.19384e+07
9.30575e+06
1.17648e+07
9.49986e+06
1.15721e+07
9.71347e+06
1.13619e+07
9.94651e+06
1.11309e+07
1.02045e+07
1.08685e+07
1.05014e+07
1.0553e+07
1.08657e+07
1.01446e+07
1.13516e+07
1.00148e+07
9.83538e+06
9.58321e+06
9.23017e+06
8.73119e+06
1.17513e+07
1.23598e+07
1.32495e+07
8.40539e+06
7.77101e+06
1.0661e+07
1.03102e+07
1.10081e+07
9.971e+06
1.13364e+07
9.65777e+06
1.16324e+07
9.38321e+06
1.18844e+07
9.15739e+06
1.20839e+07
8.98726e+06
1.22254e+07
8.87634e+06
1.2307e+07
8.82477e+06
1.23299e+07
8.82968e+06
1.22982e+07
8.88574e+06
1.22178e+07
8.98598e+06
1.20963e+07
9.12271e+06
1.19413e+07
9.2885e+06
1.176e+07
9.4773e+06
1.15581e+07
9.68558e+06
1.13387e+07
9.91373e+06
1.11009e+07
1.01679e+07
1.08376e+07
1.04627e+07
1.05313e+07
1.08265e+07
1.01457e+07
1.13107e+07
1.01318e+07
9.77343e+06
9.54201e+06
9.21838e+06
8.76077e+06
1.17679e+07
1.23e+07
1.30435e+07
8.02041e+06
7.53502e+06
1.06558e+07
1.03053e+07
1.10024e+07
9.96619e+06
1.13301e+07
9.653e+06
1.1625e+07
9.37849e+06
1.18758e+07
9.15289e+06
1.20739e+07
8.98325e+06
1.22141e+07
8.87324e+06
1.22945e+07
8.82312e+06
1.23169e+07
8.8301e+06
1.22856e+07
8.8889e+06
1.22072e+07
8.9925e+06
1.20896e+07
9.13309e+06
1.19409e+07
9.30301e+06
1.17684e+07
9.4958e+06
1.15776e+07
9.70724e+06
1.13706e+07
9.93653e+06
1.11451e+07
1.01878e+07
1.08923e+07
1.04722e+07
1.05943e+07
1.08121e+07
1.02192e+07
1.1249e+07
1.02811e+07
9.77141e+06
9.58309e+06
9.32839e+06
8.98073e+06
1.16596e+07
1.20144e+07
1.23994e+07
8.2983e+06
8.17921e+06
1.06609e+07
1.03101e+07
1.1008e+07
9.97076e+06
1.13365e+07
9.65745e+06
1.16325e+07
9.38279e+06
1.18846e+07
9.15685e+06
1.20841e+07
8.98657e+06
1.22257e+07
8.87545e+06
1.23075e+07
8.82362e+06
1.23306e+07
8.82817e+06
1.22991e+07
8.88371e+06
1.22192e+07
8.98318e+06
1.20983e+07
9.11872e+06
1.19441e+07
9.28263e+06
1.17643e+07
9.4684e+06
1.15648e+07
9.67171e+06
1.13498e+07
9.89157e+06
1.11203e+07
1.01316e+07
1.0873e+07
1.04017e+07
1.05984e+07
1.07205e+07
1.02769e+07
1.11179e+07
1.04493e+07
9.81215e+06
9.68062e+06
9.51646e+06
9.31332e+06
1.15073e+07
1.171e+07
1.17596e+07
8.82114e+06
8.55544e+06
1.06559e+07
1.03053e+07
1.10026e+07
9.96602e+06
1.13303e+07
9.6527e+06
1.16254e+07
9.37806e+06
1.18764e+07
9.15228e+06
1.20747e+07
8.98243e+06
1.22151e+07
8.87214e+06
1.22958e+07
8.82166e+06
1.23186e+07
8.82817e+06
1.2288e+07
8.8863e+06
1.22105e+07
8.98896e+06
1.20942e+07
9.12816e+06
1.19476e+07
9.29595e+06
1.17785e+07
9.48537e+06
1.15931e+07
9.69126e+06
1.13949e+07
9.91103e+06
1.1184e+07
1.01454e+07
1.09559e+07
1.03987e+07
1.0701e+07
1.06796e+07
1.04052e+07
1.10013e+07
1.06294e+07
9.88024e+06
9.80646e+06
9.73419e+06
9.67376e+06
1.13644e+07
1.15513e+07
1.18425e+07
1.27191e+07
1.34124e+07
1.06608e+07
1.03098e+07
1.10081e+07
9.97041e+06
1.13366e+07
9.65693e+06
1.16328e+07
9.38207e+06
1.18851e+07
9.1559e+06
1.20848e+07
8.98532e+06
1.22266e+07
8.87381e+06
1.23087e+07
8.82147e+06
1.23321e+07
8.82531e+06
1.23012e+07
8.87984e+06
1.22219e+07
8.97784e+06
1.21019e+07
9.11115e+06
1.19492e+07
9.27161e+06
1.17716e+07
9.45195e+06
1.1576e+07
9.64653e+06
1.13677e+07
9.85215e+06
1.11506e+07
1.00686e+07
1.09272e+07
1.0299e+07
1.07e+07
1.05494e+07
1.04727e+07
1.08252e+07
1.07952e+07
9.95577e+06
9.93119e+06
9.93484e+06
9.99012e+06
1.12199e+07
1.14089e+07
1.17437e+07
1.22477e+07
1.26739e+07
1.06559e+07
1.03052e+07
1.10028e+07
9.96575e+06
1.13307e+07
9.65224e+06
1.1626e+07
9.37737e+06
1.18773e+07
9.15133e+06
1.20758e+07
8.98114e+06
1.22166e+07
8.87043e+06
1.22979e+07
8.8194e+06
1.23213e+07
8.82517e+06
1.22916e+07
8.8823e+06
1.22154e+07
8.98357e+06
1.21012e+07
9.12076e+06
1.19577e+07
9.28557e+06
1.17934e+07
9.4704e+06
1.16155e+07
9.66896e+06
1.14295e+07
9.87666e+06
1.12382e+07
1.00903e+07
1.1042e+07
1.0307e+07
1.08394e+07
1.05212e+07
1.06305e+07
1.07193e+07
1.09517e+07
1.00272e+07
1.00319e+07
1.00823e+07
1.02197e+07
1.10573e+07
1.12099e+07
1.14713e+07
1.18178e+07
1.21254e+07
1.06607e+07
1.03095e+07
1.10081e+07
9.9699e+06
1.13369e+07
9.65619e+06
1.16333e+07
9.38106e+06
1.18857e+07
9.15456e+06
1.20857e+07
8.98356e+06
1.22279e+07
8.87153e+06
1.23103e+07
8.81849e+06
1.23343e+07
8.82138e+06
1.23039e+07
8.87459e+06
1.22256e+07
8.97067e+06
1.21068e+07
9.10113e+06
1.19558e+07
9.25726e+06
1.17808e+07
9.43087e+06
1.15892e+07
9.61487e+06
1.13876e+07
9.80366e+06
1.11819e+07
9.99316e+06
1.09795e+07
1.01804e+07
1.07932e+07
1.03623e+07
1.06497e+07
1.05324e+07
1.1068e+07
1.00844e+07
1.0094e+07
1.01446e+07
1.03046e+07
1.08903e+07
1.10011e+07
1.12049e+07
1.14769e+07
1.17373e+07
1.0656e+07
1.0305e+07
1.10031e+07
9.9654e+06
1.13313e+07
9.65165e+06
1.16269e+07
9.37649e+06
1.18784e+07
9.1501e+06
1.20773e+07
8.97948e+06
1.22186e+07
8.86823e+06
1.23005e+07
8.8165e+06
1.23248e+07
8.82137e+06
1.22961e+07
8.8773e+06
1.22215e+07
8.97692e+06
1.21096e+07
9.11182e+06
1.19696e+07
9.27335e+06
1.18106e+07
9.45337e+06
1.1641e+07
9.64475e+06
1.14679e+07
9.8414e+06
1.12969e+07
1.00376e+07
1.11322e+07
1.02256e+07
1.09777e+07
1.03905e+07
1.08378e+07
1.04998e+07
1.11704e+07
1.01372e+07
1.01227e+07
1.01015e+07
1.00323e+07
9.70248e+06
9.44037e+06
9.18436e+06
8.94832e+06
8.78543e+06
1.06605e+07
1.03092e+07
1.10082e+07
9.96927e+06
1.13372e+07
9.65528e+06
1.16338e+07
9.37982e+06
1.18865e+07
9.15292e+06
1.20868e+07
8.98144e+06
1.22293e+07
8.86878e+06
1.23122e+07
8.81494e+06
1.23368e+07
8.81677e+06
1.23072e+07
8.86851e+06
1.22298e+07
8.9625e+06
1.21123e+07
9.08991e+06
1.19632e+07
9.24152e+06
1.17907e+07
9.40828e+06
1.16025e+07
9.58179e+06
1.14055e+07
9.75438e+06
1.12061e+07
9.91878e+06
1.10121e+07
1.00673e+07
1.08386e+07
1.01911e+07
1.07306e+07
1.02837e+07
1.1214e+07
1.01951e+07
1.01633e+07
1.01047e+07
1.00058e+07
9.81754e+06
9.62936e+06
9.44884e+06
9.29574e+06
9.19521e+06
1.06561e+07
1.03049e+07
1.10035e+07
9.96501e+06
1.13319e+07
9.65096e+06
1.16278e+07
9.37547e+06
1.18797e+07
9.14868e+06
1.20791e+07
8.97757e+06
1.22209e+07
8.8657e+06
1.23035e+07
8.8132e+06
1.23286e+07
8.81707e+06
1.23011e+07
8.8717e+06
1.22282e+07
8.96961e+06
1.21185e+07
9.10221e+06
1.19818e+07
9.26063e+06
1.18278e+07
9.43641e+06
1.16657e+07
9.62202e+06
1.15041e+07
9.811e+06
1.13505e+07
9.99741e+06
1.12123e+07
1.01739e+07
1.10976e+07
1.03252e+07
1.10145e+07
1.04065e+07
1.12866e+07
1.02729e+07
1.02328e+07
1.01445e+07
1.00584e+07
9.92029e+06
9.79291e+06
9.66414e+06
9.56702e+06
9.5035e+06
1.06603e+07
1.03087e+07
1.10082e+07
9.96855e+06
1.13374e+07
9.65425e+06
1.16343e+07
9.37843e+06
1.18874e+07
9.1511e+06
1.2088e+07
8.97909e+06
1.22309e+07
8.86578e+06
1.23143e+07
8.81111e+06
1.23395e+07
8.81186e+06
1.23107e+07
8.86214e+06
1.22343e+07
8.95413e+06
1.21182e+07
9.07871e+06
1.19708e+07
9.22622e+06
1.18005e+07
9.38698e+06
1.16149e+07
9.55164e+06
1.14206e+07
9.7111e+06
1.12224e+07
9.85587e+06
1.10227e+07
9.97446e+06
1.08175e+07
1.00491e+07
1.05789e+07
1.00429e+07
1.01665e+07
9.8496e+06
9.88301e+06
9.61925e+06
9.54201e+06
9.27172e+06
9.13137e+06
8.92165e+06
8.8174e+06
8.73583e+06
1.06563e+07
1.03048e+07
1.10039e+07
9.96461e+06
1.13327e+07
9.65025e+06
1.16289e+07
9.3744e+06
1.18812e+07
9.14718e+06
1.2081e+07
8.97555e+06
1.22234e+07
8.86303e+06
1.23066e+07
8.80972e+06
1.23326e+07
8.81256e+06
1.23062e+07
8.8659e+06
1.22347e+07
8.96215e+06
1.2127e+07
9.09263e+06
1.1993e+07
9.24833e+06
1.18429e+07
9.42068e+06
1.16866e+07
9.60218e+06
1.15334e+07
9.78685e+06
1.13921e+07
9.97065e+06
1.12723e+07
1.01525e+07
1.11862e+07
1.03387e+07
1.11558e+07
1.05631e+07
1.1238e+07
1.09839e+07
1.1351e+07
1.12815e+07
1.15552e+07
1.16004e+07
1.18181e+07
1.18888e+07
1.20137e+07
1.2046e+07
1.06601e+07
1.03082e+07
1.10083e+07
9.96778e+06
1.13377e+07
9.65316e+06
1.16348e+07
9.37697e+06
1.18882e+07
9.1492e+06
1.20892e+07
8.97667e+06
1.22325e+07
8.86273e+06
1.23164e+07
8.80728e+06
1.23422e+07
8.80703e+06
1.23142e+07
8.85602e+06
1.22389e+07
8.94628e+06
1.21241e+07
9.06852e+06
1.19784e+07
9.21278e+06
1.18102e+07
9.36901e+06
1.16271e+07
9.52738e+06
1.14352e+07
9.67818e+06
1.12386e+07
9.81145e+06
1.1038e+07
9.91569e+06
1.08281e+07
9.97588e+06
1.05938e+07
9.97069e+06
1.03128e+07
9.87616e+06
1.0056e+07
9.73133e+06
9.79483e+06
9.54327e+06
9.53731e+06
9.36988e+06
9.34888e+06
9.28899e+06
1.06565e+07
1.03047e+07
1.10044e+07
9.96423e+06
1.13334e+07
9.64955e+06
1.163e+07
9.37334e+06
1.18827e+07
9.14569e+06
1.2083e+07
8.97353e+06
1.22259e+07
8.86037e+06
1.23098e+07
8.80627e+06
1.23366e+07
8.80812e+06
1.23111e+07
8.86023e+06
1.22407e+07
8.95495e+06
1.21344e+07
9.08352e+06
1.20024e+07
9.23688e+06
1.18548e+07
9.40644e+06
1.1702e+07
9.5848e+06
1.15534e+07
9.7664e+06
1.14183e+07
9.94827e+06
1.13057e+07
1.01314e+07
1.1226e+07
1.03232e+07
1.11918e+07
1.05426e+07
1.12165e+07
1.08155e+07
1.12808e+07
1.10624e+07
1.1388e+07
1.12928e+07
1.15122e+07
1.14828e+07
1.15962e+07
1.15916e+07
1.06598e+07
1.03077e+07
1.10082e+07
9.96699e+06
1.13379e+07
9.65206e+06
1.16353e+07
9.37551e+06
1.18889e+07
9.14733e+06
1.20902e+07
8.97432e+06
1.22339e+07
8.85982e+06
1.23183e+07
8.80368e+06
1.23447e+07
8.80259e+06
1.23175e+07
8.85055e+06
1.22432e+07
8.93949e+06
1.21298e+07
9.06002e+06
1.19858e+07
9.20206e+06
1.18198e+07
9.35544e+06
1.16394e+07
9.51021e+06
1.14509e+07
9.65678e+06
1.12583e+07
9.78575e+06
1.1063e+07
9.88745e+06
1.0863e+07
9.95158e+06
1.06535e+07
9.96807e+06
1.04335e+07
9.93236e+06
1.02232e+07
9.86009e+06
1.00238e+07
9.76841e+06
9.84632e+06
9.69064e+06
9.71873e+06
9.66589e+06
1.06567e+07
1.03046e+07
1.10049e+07
9.9639e+06
1.13342e+07
9.64893e+06
1.16312e+07
9.37237e+06
1.18842e+07
9.1443e+06
1.2085e+07
8.97165e+06
1.22283e+07
8.85789e+06
1.23128e+07
8.80303e+06
1.23402e+07
8.80396e+06
1.23154e+07
8.85493e+06
1.22458e+07
8.94826e+06
1.21405e+07
9.07514e+06
1.20094e+07
9.22644e+06
1.18631e+07
9.39354e+06
1.17115e+07
9.56903e+06
1.15642e+07
9.74738e+06
1.14299e+07
9.92558e+06
1.13166e+07
1.01038e+07
1.12317e+07
1.0286e+07
1.11817e+07
1.04788e+07
1.11695e+07
1.06841e+07
1.11881e+07
1.08773e+07
1.12302e+07
1.105e+07
1.12775e+07
1.1188e+07
1.13006e+07
1.12741e+07
1.06596e+07
1.03072e+07
1.10082e+07
9.96622e+06
1.13381e+07
9.65101e+06
1.16357e+07
9.37415e+06
1.18895e+07
9.1456e+06
1.20911e+07
8.97218e+06
1.22351e+07
8.8572e+06
1.23199e+07
8.80052e+06
1.23469e+07
8.7988e+06
1.23205e+07
8.84602e+06
1.22472e+07
8.93409e+06
1.2135e+07
9.05358e+06
1.19929e+07
9.19441e+06
1.18293e+07
9.34646e+06
1.16521e+07
9.49996e+06
1.14678e+07
9.64574e+06
1.12812e+07
9.77535e+06
1.10946e+07
9.88108e+06
1.09088e+07
9.95618e+06
1.07237e+07
9.99612e+06
1.05415e+07
1.00014e+07
1.03701e+07
9.98114e+06
1.02143e+07
9.94945e+06
1.00819e+07
9.92653e+06
9.98518e+06
9.93378e+06
1.0657e+07
1.03046e+07
1.10054e+07
9.96366e+06
1.1335e+07
9.64841e+06
1.16322e+07
9.37155e+06
1.18857e+07
9.14311e+06
1.20868e+07
8.97002e+06
1.22306e+07
8.8557e+06
1.23155e+07
8.80016e+06
1.23434e+07
8.80026e+06
1.23191e+07
8.8502e+06
1.225e+07
8.94228e+06
1.2145e+07
9.06761e+06
1.20141e+07
9.21702e+06
1.18677e+07
9.38179e+06
1.17157e+07
9.55436e+06
1.15671e+07
9.72893e+06
1.14302e+07
9.90189e+06
1.13118e+07
1.00721e+07
1.12171e+07
1.02403e+07
1.11498e+07
1.04081e+07
1.11101e+07
1.05735e+07
1.10935e+07
1.07271e+07
1.10925e+07
1.08617e+07
1.10946e+07
1.09697e+07
1.10832e+07
1.1044e+07
1.06592e+07
1.03067e+07
1.1008e+07
9.9655e+06
1.13381e+07
9.65006e+06
1.16359e+07
9.37293e+06
1.18899e+07
9.14409e+06
1.20917e+07
8.97034e+06
1.2236e+07
8.85501e+06
1.23212e+07
8.79795e+06
1.23487e+07
8.79582e+06
1.23229e+07
8.8426e+06
1.22505e+07
8.93023e+06
1.21397e+07
9.0493e+06
1.19994e+07
9.18981e+06
1.18383e+07
9.34177e+06
1.16647e+07
9.4957e+06
1.14853e+07
9.64298e+06
1.13055e+07
9.77609e+06
1.11288e+07
9.88877e+06
1.09573e+07
9.97646e+06
1.07927e+07
1.0037e+07
1.06372e+07
1.00721e+07
1.04948e+07
1.0088e+07
1.03688e+07
1.00947e+07
1.02633e+07
1.01049e+07
1.01834e+07
1.01315e+07
1.06572e+07
1.03047e+07
1.10059e+07
9.96353e+06
1.13358e+07
9.64806e+06
1.16332e+07
9.37093e+06
1.1887e+07
9.14219e+06
1.20884e+07
8.96871e+06
1.22326e+07
8.85392e+06
1.23179e+07
8.79779e+06
1.23461e+07
8.79715e+06
1.23221e+07
8.84618e+06
1.2253e+07
8.93712e+06
1.21479e+07
9.06105e+06
1.20166e+07
9.20868e+06
1.18693e+07
9.37115e+06
1.17155e+07
9.54069e+06
1.15641e+07
9.7111e+06
1.14226e+07
9.8781e+06
1.1297e+07
1.00393e+07
1.11915e+07
1.01939e+07
1.11084e+07
1.03414e+07
1.10473e+07
1.048e+07
1.10047e+07
1.06058e+07
1.09749e+07
1.07148e+07
1.09494e+07
1.0804e+07
1.09178e+07
1.08712e+07
1.06589e+07
1.03062e+07
1.10078e+07
9.96486e+06
1.1338e+07
9.64924e+06
1.16359e+07
9.37192e+06
1.18901e+07
9.14287e+06
1.2092e+07
8.9689e+06
1.22366e+07
8.85334e+06
1.2322e+07
8.79606e+06
1.23498e+07
8.79374e+06
1.23247e+07
8.84038e+06
1.22532e+07
8.92794e+06
1.21437e+07
9.0471e+06
1.20052e+07
9.18797e+06
1.18467e+07
9.34074e+06
1.16768e+07
9.49626e+06
1.15025e+07
9.64641e+06
1.13297e+07
9.78438e+06
1.11626e+07
9.90496e+06
1.10042e+07
1.00047e+07
1.08563e+07
1.00825e+07
1.07209e+07
1.01398e+07
1.05998e+07
1.01811e+07
1.04945e+07
1.02133e+07
1.04063e+07
1.02446e+07
1.03362e+07
1.02834e+07
1.06575e+07
1.03049e+07
1.10064e+07
9.96352e+06
1.13364e+07
9.64788e+06
1.16341e+07
9.37056e+06
1.18881e+07
9.14158e+06
1.20898e+07
8.9678e+06
1.22342e+07
8.85263e+06
1.23197e+07
8.79602e+06
1.23481e+07
8.79475e+06
1.23242e+07
8.84299e+06
1.2255e+07
8.93292e+06
1.21495e+07
9.05555e+06
1.20172e+07
9.20148e+06
1.18683e+07
9.36171e+06
1.17119e+07
9.52817e+06
1.15567e+07
9.69428e+06
1.14096e+07
9.85517e+06
1.12762e+07
1.00077e+07
1.11601e+07
1.015e+07
1.10631e+07
1.02813e+07
1.09849e+07
1.04003e+07
1.0923e+07
1.05059e+07
1.08733e+07
1.05969e+07
1.08298e+07
1.06731e+07
1.07859e+07
1.07352e+07
1.06586e+07
1.03058e+07
1.10075e+07
9.96433e+06
1.13378e+07
9.6486e+06
1.16357e+07
9.37115e+06
1.189e+07
9.14198e+06
1.2092e+07
8.9679e+06
1.22366e+07
8.85225e+06
1.23222e+07
8.79491e+06
1.23504e+07
8.79261e+06
1.23257e+07
8.83936e+06
1.2255e+07
8.92718e+06
1.21467e+07
9.04683e+06
1.201e+07
9.18855e+06
1.18542e+07
9.34274e+06
1.16879e+07
9.50055e+06
1.15187e+07
9.65427e+06
1.13528e+07
9.79769e+06
1.11947e+07
9.92622e+06
1.10478e+07
1.0037e+07
1.09139e+07
1.01293e+07
1.07944e+07
1.02039e+07
1.06897e+07
1.0264e+07
1.05997e+07
1.03141e+07
1.05237e+07
1.03598e+07
1.04601e+07
1.04068e+07
1.06579e+07
1.03051e+07
1.10068e+07
9.96366e+06