/*--------------------------------*- C++ -*----------------------------------*\
| =========                 |                                                 |
| \\      /  F ield         | foam-extend: Open Source CFD                    |
|  \\    /   O peration     | Version:     4.0                                |
|   \\  /    A nd           | Web:         http://www.foam-extend.org         |
|    \\/     M anipulation  |                                                 |
\*---------------------------------------------------------------------------*/
FoamFile
{
    version     2.0;
    format      ascii;
    class       surfaceScalarField;
    location    "3e-05";
    object      phi;
}
// * * * * * * * * * * * * * * * * * * * * * * * * * * * * * * * * * * * * * //

dimensions      [0 3 -1 0 0 0 0];

internalField   nonuniform List<scalar> 
57362
(
1.46735e-07
1.39283e-10
1.46611e-07
1.41356e-10
1.46436e-07
1.45848e-10
1.46325e-07
1.52194e-10
1.46111e-07
1.61456e-10
1.46001e-07
1.72437e-10
1.45742e-07
1.8704e-10
1.4562e-07
2.03279e-10
1.45306e-07
2.24116e-10
1.45156e-07
2.46524e-10
1.44778e-07
2.74856e-10
1.44582e-07
3.04674e-10
1.44127e-07
3.42184e-10
1.43863e-07
3.81029e-10
1.43314e-07
4.29899e-10
1.42954e-07
4.79822e-10
1.42291e-07
5.42808e-10
1.41805e-07
6.06351e-10
1.40999e-07
6.86865e-10
1.40349e-07
7.67117e-10
1.39365e-07
8.69294e-10
1.38506e-07
9.69917e-10
1.373e-07
1.09864e-09
1.3618e-07
1.22386e-09
1.34697e-07
1.38468e-09
1.33251e-07
1.5392e-09
1.31425e-07
1.73815e-09
1.2958e-07
1.92692e-09
1.27333e-07
2.17003e-09
1.25007e-07
2.39787e-09
1.22251e-07
2.69034e-09
1.19351e-07
2.96125e-09
1.1599e-07
3.30619e-09
1.12418e-07
3.62236e-09
1.08354e-07
4.01897e-09
1.04016e-07
4.37935e-09
9.91592e-08
4.82079e-09
9.39732e-08
5.21913e-09
8.82549e-08
5.69058e-09
8.21676e-08
6.1132e-09
7.55562e-08
6.59082e-09
6.85615e-08
7.01451e-09
6.10807e-08
7.46628e-09
5.32373e-08
7.85804e-09
4.49816e-08
8.24645e-09
3.64248e-08
8.56705e-09
2.75662e-08
8.85377e-09
1.85075e-08
9.06506e-09
9.28889e-09
9.21778e-09
9.29167e-09
1.46722e-07
2.76458e-10
1.46601e-07
2.80578e-10
1.46427e-07
2.89495e-10
1.46318e-07
3.02098e-10
1.46107e-07
3.20484e-10
1.46e-07
3.42291e-10
1.45744e-07
3.71281e-10
1.45625e-07
4.03531e-10
1.45314e-07
4.449e-10
1.45168e-07
4.8941e-10
1.44794e-07
5.45662e-10
1.44603e-07
6.049e-10
1.44153e-07
6.79384e-10
1.43893e-07
7.56573e-10
1.43351e-07
8.53628e-10
1.42998e-07
9.52857e-10
1.42342e-07
1.07797e-09
1.41865e-07
1.20432e-09
1.41068e-07
1.3643e-09
1.40428e-07
1.52392e-09
1.39456e-07
1.72704e-09
1.3861e-07
1.92727e-09
1.37418e-07
2.18328e-09
1.36312e-07
2.43259e-09
1.34846e-07
2.75268e-09
1.33417e-07
3.06049e-09
1.3161e-07
3.45683e-09
1.29786e-07
3.83312e-09
1.27561e-07
4.31799e-09
1.25257e-07
4.7725e-09
1.22524e-07
5.35663e-09
1.19648e-07
5.89757e-09
1.1631e-07
6.58758e-09
1.12762e-07
7.21966e-09
1.0872e-07
8.01437e-09
1.04403e-07
8.73602e-09
9.95627e-08
9.62207e-09
9.43909e-08
1.04216e-08
8.86807e-08
1.13694e-08
8.25962e-08
1.22203e-08
7.59798e-08
1.31819e-08
6.89719e-08
1.40379e-08
6.1469e-08
1.4949e-08
5.35935e-08
1.57428e-08
4.52967e-08
1.65275e-08
3.66891e-08
1.71784e-08
2.77724e-08
1.77585e-08
1.86487e-08
1.81881e-08
9.36072e-09
1.84973e-08
1.86476e-08
1.46741e-07
4.09537e-10
1.46624e-07
4.15646e-10
1.46455e-07
4.28863e-10
1.4635e-07
4.47543e-10
1.46144e-07
4.74797e-10
1.46041e-07
5.0712e-10
1.4579e-07
5.50098e-10
1.45677e-07
5.97905e-10
1.45373e-07
6.59246e-10
1.45234e-07
7.25234e-10
1.44868e-07
8.08662e-10
1.44685e-07
8.96505e-10
1.44244e-07
1.00701e-09
1.43996e-07
1.1215e-09
1.43465e-07
1.26554e-09
1.43125e-07
1.41278e-09
1.42484e-07
1.59855e-09
1.42023e-07
1.78611e-09
1.41244e-07
2.0238e-09
1.40624e-07
2.2609e-09
1.39674e-07
2.56289e-09
1.38852e-07
2.86054e-09
1.37687e-07
3.24152e-09
1.3661e-07
3.61249e-09
1.35175e-07
4.08935e-09
1.33781e-07
4.54793e-09
1.32011e-07
5.1392e-09
1.30227e-07
5.70065e-09
1.28043e-07
6.4252e-09
1.25784e-07
7.10459e-09
1.23096e-07
7.97929e-09
1.20266e-07
8.78959e-09
1.16974e-07
9.82546e-09
1.13471e-07
1.07746e-08
1.09471e-07
1.19713e-08
1.05192e-07
1.3058e-08
1.00385e-07
1.43969e-08
9.5237e-08
1.56046e-08
8.95404e-08
1.70422e-08
8.34579e-08
1.83319e-08
7.68283e-08
1.97958e-08
6.97921e-08
2.10981e-08
6.22428e-08
2.24897e-08
5.43034e-08
2.37022e-08
4.59239e-08
2.49045e-08
3.72164e-08
2.59026e-08
2.81836e-08
2.6794e-08
1.89307e-08
2.74546e-08
9.50421e-09
2.79308e-08
2.81623e-08
1.46747e-07
5.36471e-10
1.46636e-07
5.44481e-10
1.46474e-07
5.61801e-10
1.46376e-07
5.86292e-10
1.46177e-07
6.22012e-10
1.46082e-07
6.64394e-10
1.45839e-07
7.20727e-10
1.45735e-07
7.83425e-10
1.45441e-07
8.63839e-10
1.45313e-07
9.50406e-10
1.44959e-07
1.0598e-09
1.44788e-07
1.17508e-09
1.44363e-07
1.32002e-09
1.4413e-07
1.47034e-09
1.43618e-07
1.65935e-09
1.43298e-07
1.85277e-09
1.42679e-07
2.09667e-09
1.42242e-07
2.34324e-09
1.41491e-07
2.65553e-09
1.40902e-07
2.96751e-09
1.39986e-07
3.36465e-09
1.392e-07
3.7567e-09
1.38076e-07
4.25835e-09
1.37044e-07
4.74758e-09
1.35658e-07
5.37649e-09
1.34316e-07
5.98216e-09
1.32604e-07
6.76353e-09
1.3088e-07
7.50635e-09
1.28761e-07
8.46629e-09
1.26569e-07
9.36696e-09
1.23951e-07
1.05294e-08
1.21193e-07
1.16063e-08
1.17973e-07
1.2988e-08
1.14543e-07
1.42531e-08
1.10609e-07
1.5856e-08
1.06395e-07
1.73099e-08
1.01639e-07
1.91111e-08
9.65368e-08
2.0735e-08
9.08667e-08
2.26772e-08
8.4795e-08
2.44225e-08
7.81526e-08
2.64083e-08
7.10773e-08
2.81841e-08
6.34614e-08
3.00799e-08
5.54228e-08
3.1744e-08
4.69158e-08
3.3389e-08
3.80496e-08
3.47657e-08
2.88343e-08
3.59898e-08
1.93763e-08
3.69039e-08
9.73109e-09
3.75595e-08
3.78805e-08
1.4674e-07
6.5541e-10
1.46637e-07
6.65203e-10
1.46483e-07
6.86383e-10
1.46394e-07
7.16331e-10
1.46204e-07
7.60014e-10
1.46119e-07
8.11846e-10
1.45886e-07
8.80751e-10
1.45794e-07
9.57442e-10
1.45512e-07
1.05583e-09
1.45397e-07
1.16175e-09
1.45058e-07
1.29564e-09
1.44905e-07
1.43674e-09
1.44498e-07
1.61422e-09
1.44286e-07
1.79831e-09
1.43797e-07
2.0299e-09
1.43503e-07
2.26693e-09
1.42913e-07
2.56603e-09
1.42508e-07
2.86843e-09
1.41793e-07
3.25177e-09
1.41243e-07
3.6348e-09
1.4037e-07
4.12291e-09
1.39633e-07
4.6049e-09
1.38562e-07
5.22244e-09
1.37588e-07
5.8249e-09
1.36266e-07
6.60062e-09
1.34994e-07
7.34802e-09
1.33356e-07
8.31417e-09
1.31713e-07
9.23314e-09
1.2968e-07
1.04237e-08
1.27578e-07
1.15414e-08
1.25055e-07
1.29886e-08
1.22394e-07
1.43298e-08
1.19272e-07
1.60579e-08
1.15937e-07
1.76403e-08
1.12097e-07
1.9656e-08
1.07967e-07
2.14837e-08
1.03286e-07
2.3763e-08
9.82419e-08
2.58164e-08
9.26091e-08
2.82905e-08
8.65511e-08
3.05126e-08
7.98904e-08
3.30588e-08
7.2766e-08
3.53368e-08
6.50622e-08
3.77816e-08
5.68987e-08
3.99332e-08
4.82258e-08
4.20671e-08
3.91553e-08
4.38599e-08
2.96997e-08
4.54565e-08
1.99716e-08
4.66538e-08
1.00344e-08
4.75125e-08
4.79342e-08
1.46765e-07
7.64511e-10
1.46672e-07
7.75948e-10
1.46528e-07
8.00672e-10
1.4645e-07
8.35649e-10
1.46272e-07
8.86646e-10
1.46199e-07
9.47191e-10
1.4598e-07
1.02765e-09
1.45901e-07
1.11726e-09
1.45636e-07
1.23217e-09
1.45538e-07
1.35598e-09
1.45218e-07
1.51241e-09
1.45086e-07
1.67743e-09
1.44703e-07
1.88489e-09
1.44517e-07
2.10034e-09
1.44057e-07
2.37123e-09
1.43795e-07
2.64887e-09
1.43242e-07
2.99901e-09
1.42877e-07
3.35362e-09
1.42207e-07
3.80287e-09
1.41706e-07
4.25263e-09
1.40889e-07
4.8255e-09
1.40212e-07
5.39238e-09
1.39209e-07
6.11849e-09
1.38307e-07
6.82847e-09
1.37067e-07
7.74276e-09
1.35881e-07
8.62561e-09
1.34339e-07
9.76784e-09
1.32797e-07
1.08564e-08
1.30873e-07
1.22694e-08
1.28887e-07
1.35976e-08
1.26483e-07
1.53235e-08
1.23948e-07
1.69234e-08
1.2095e-07
1.89963e-08
1.17745e-07
2.08926e-08
1.14023e-07
2.33269e-08
1.10013e-07
2.55295e-08
1.0543e-07
2.83024e-08
1.00476e-07
3.07954e-08
9.49015e-08
3.38268e-08
8.88768e-08
3.65523e-08
8.22091e-08
3.96919e-08
7.50294e-08
4.25218e-08
6.72213e-08
4.55579e-08
5.88915e-08
4.82593e-08
4.99997e-08
5.0929e-08
4.06504e-08
5.31977e-08
3.08704e-08
5.52083e-08
2.07749e-08
5.67315e-08
1.04439e-08
5.78175e-08
5.83554e-08
1.46776e-07
8.62213e-10
1.46695e-07
8.75127e-10
1.46563e-07
9.03043e-10
1.46497e-07
9.42539e-10
1.46331e-07
1.00013e-09
1.46272e-07
1.06851e-09
1.46068e-07
1.15939e-09
1.46006e-07
1.26062e-09
1.45758e-07
1.39047e-09
1.4568e-07
1.53039e-09
1.45382e-07
1.70724e-09
1.45274e-07
1.89385e-09
1.44918e-07
2.12854e-09
1.44762e-07
2.37233e-09
1.44335e-07
2.67903e-09
1.44111e-07
2.99349e-09
1.43599e-07
3.39035e-09
1.4328e-07
3.79244e-09
1.42662e-07
4.30234e-09
1.42219e-07
4.81308e-09
1.41465e-07
5.4644e-09
1.4086e-07
6.10935e-09
1.39935e-07
6.9367e-09
1.3912e-07
7.74632e-09
1.37975e-07
8.79095e-09
1.36893e-07
9.80061e-09
1.35464e-07
1.11102e-08
1.34044e-07
1.23594e-08
1.32253e-07
1.39865e-08
1.30406e-07
1.55173e-08
1.28152e-07
1.75153e-08
1.25768e-07
1.93687e-08
1.22931e-07
2.17843e-08
1.19882e-07
2.39945e-08
1.16317e-07
2.6854e-08
1.12452e-07
2.94396e-08
1.08001e-07
3.27272e-08
1.03156e-07
3.56791e-08
9.76583e-08
3.93099e-08
9.16754e-08
4.25701e-08
8.49957e-08
4.63674e-08
7.77568e-08
4.97936e-08
6.9825e-08
5.34952e-08
6.13096e-08
5.68068e-08
5.21616e-08
6.00911e-08
4.24873e-08
6.29041e-08
3.23167e-08
6.54002e-08
2.17739e-08
6.7306e-08
1.09546e-08
6.86636e-08
6.93401e-08
1.46774e-07
9.46923e-10
1.46706e-07
9.61126e-10
1.46588e-07
9.91815e-10
1.46536e-07
1.03526e-09
1.46386e-07
1.09858e-09
1.46343e-07
1.17381e-09
1.46157e-07
1.27375e-09
1.46114e-07
1.38517e-09
1.45887e-07
1.52801e-09
1.45832e-07
1.68209e-09
1.4556e-07
1.87673e-09
1.45479e-07
2.08235e-09
1.45155e-07
2.34081e-09
1.45033e-07
2.60969e-09
1.44646e-07
2.94773e-09
1.44465e-07
3.29494e-09
1.44002e-07
3.73282e-09
1.43737e-07
4.17743e-09
1.4318e-07
4.74083e-09
1.42803e-07
5.30656e-09
1.42126e-07
6.02756e-09
1.41602e-07
6.7435e-09
1.4077e-07
7.66155e-09
1.40055e-07
8.56266e-09
1.39023e-07
9.72538e-09
1.38062e-07
1.08527e-08
1.36768e-07
1.23161e-08
1.35492e-07
1.37162e-08
1.33856e-07
1.55436e-08
1.32175e-07
1.7267e-08
1.30097e-07
1.95254e-08
1.279e-07
2.16227e-08
1.25249e-07
2.43752e-08
1.22398e-07
2.68909e-08
1.19019e-07
3.01808e-08
1.15348e-07
3.31448e-08
1.1106e-07
3.69686e-08
1.06378e-07
4.03839e-08
1.00995e-07
4.46514e-08
9.50987e-08
4.84767e-08
8.84508e-08
5.29758e-08
8.11633e-08
5.708e-08
7.31087e-08
6.15114e-08
6.43647e-08
6.55387e-08
5.49013e-08
6.95161e-08
4.48091e-08
7.29744e-08
3.41428e-08
7.60279e-08
2.30308e-08
7.83882e-08
1.15963e-08
8.00601e-08
8.09012e-08
1.46803e-07
1.01749e-09
1.4675e-07
1.03277e-09
1.46646e-07
1.06579e-09
1.46609e-07
1.11254e-09
1.46475e-07
1.18069e-09
1.4645e-07
1.26167e-09
1.46282e-07
1.36925e-09
1.46259e-07
1.48923e-09
1.46054e-07
1.64306e-09
1.46024e-07
1.80905e-09
1.45779e-07
2.01879e-09
1.45729e-07
2.24045e-09
1.45438e-07
2.51918e-09
1.45354e-07
2.80928e-09
1.45009e-07
3.1742e-09
1.44875e-07
3.54924e-09
1.44464e-07
4.02256e-09
1.44258e-07
4.50349e-09
1.43767e-07
5.1135e-09
1.43464e-07
5.72657e-09
1.42869e-07
6.50886e-09
1.42437e-07
7.2865e-09
1.41706e-07
8.28525e-09
1.41105e-07
9.26686e-09
1.40198e-07
1.05361e-08
1.39375e-07
1.17685e-08
1.38233e-07
1.33728e-08
1.37122e-07
1.49103e-08
1.35667e-07
1.69243e-08
1.34179e-07
1.8827e-08
1.32311e-07
2.13331e-08
1.30332e-07
2.36636e-08
1.27915e-07
2.67441e-08
1.25297e-07
2.95613e-08
1.22161e-07
3.32824e-08
1.18719e-07
3.66318e-08
1.14653e-07
4.10125e-08
1.10162e-07
4.49145e-08
1.04929e-07
4.9875e-08
9.91363e-08
5.43065e-08
9.25048e-08
5.96102e-08
8.51728e-08
6.44496e-08
7.69784e-08
6.97202e-08
6.8e-08
7.45567e-08
5.81907e-08
7.93504e-08
4.76348e-08
8.35727e-08
3.63902e-08
8.73067e-08
2.45948e-08
9.02281e-08
1.23998e-08
9.22959e-08
9.33453e-08
1.46819e-07
1.07269e-09
1.46781e-07
1.08883e-09
1.46693e-07
1.12368e-09
1.46674e-07
1.17306e-09
1.46558e-07
1.24499e-09
1.46551e-07
1.33055e-09
1.46405e-07
1.44415e-09
1.46404e-07
1.57095e-09
1.46225e-07
1.73344e-09
1.46221e-07
1.90898e-09
1.46007e-07
2.13065e-09
1.4599e-07
2.36524e-09
1.45737e-07
2.66004e-09
1.45695e-07
2.96739e-09
1.45397e-07
3.35373e-09
1.45315e-07
3.75159e-09
1.44964e-07
4.25332e-09
1.44823e-07
4.76438e-09
1.44406e-07
5.41207e-09
1.44184e-07
6.06493e-09
1.43681e-07
6.89731e-09
1.4335e-07
7.7276e-09
1.42736e-07
8.79324e-09
1.42259e-07
9.84472e-09
1.41494e-07
1.12038e-08
1.40824e-07
1.25292e-08
1.39854e-07
1.4255e-08
1.38927e-07
1.59164e-08
1.37678e-07
1.8096e-08
1.36409e-07
2.01636e-08
1.34777e-07
2.28969e-08
1.33051e-07
2.54459e-08
1.30895e-07
2.88395e-08
1.28558e-07
3.19431e-08
1.25692e-07
3.60954e-08
1.22541e-07
3.98144e-08
1.18727e-07
4.47794e-08
1.14509e-07
4.91525e-08
1.09475e-07
5.48635e-08
1.03878e-07
5.991e-08
9.73837e-08
6.60603e-08
9.00497e-08
7.1775e-08
8.17479e-08
7.79766e-08
7.24852e-08
8.37968e-08
6.22506e-08
8.95366e-08
5.11006e-08
9.46875e-08
3.91298e-08
9.92256e-08
2.64879e-08
1.02824e-07
1.33681e-08
1.05362e-07
1.06662e-07
1.4682e-07
1.1118e-09
1.46798e-07
1.12856e-09
1.46727e-07
1.16474e-09
1.46725e-07
1.216e-09
1.46627e-07
1.29069e-09
1.4664e-07
1.37953e-09
1.46515e-07
1.49751e-09
1.46538e-07
1.62924e-09
1.46383e-07
1.79808e-09
1.46408e-07
1.98055e-09
1.46225e-07
2.21102e-09
1.46243e-07
2.45506e-09
1.46029e-07
2.76184e-09
1.4603e-07
3.08187e-09
1.45781e-07
3.48435e-09
1.45753e-07
3.89916e-09
1.45463e-07
4.42262e-09
1.45391e-07
4.95633e-09
1.45051e-07
5.63332e-09
1.44916e-07
6.31654e-09
1.44511e-07
7.18864e-09
1.4429e-07
8.05987e-09
1.43797e-07
9.1797e-09
1.43458e-07
1.02867e-08
1.42845e-07
1.17204e-08
1.42345e-07
1.31217e-08
1.41564e-07
1.4951e-08
1.40846e-07
1.67168e-08
1.39828e-07
1.90415e-08
1.3881e-07
2.12533e-08
1.37455e-07
2.41916e-08
1.36023e-07
2.69394e-08
1.34191e-07
3.06249e-08
1.32185e-07
3.40013e-08
1.29678e-07
3.85699e-08
1.26878e-07
4.26592e-08
1.23424e-07
4.8214e-08
1.19533e-07
5.30836e-08
1.14786e-07
5.96059e-08
1.09415e-07
6.53195e-08
1.02989e-07
7.24965e-08
9.56693e-08
7.91375e-08
8.7262e-08
8.64087e-08
7.77563e-08
9.33508e-08
6.71133e-08
1.00218e-07
5.5352e-08
1.06504e-07
4.25672e-08
1.12061e-07
2.89096e-08
1.16544e-07
1.46226e-08
1.19709e-07
1.21348e-07
1.46852e-07
1.13409e-09
1.46847e-07
1.15121e-09
1.46794e-07
1.18816e-09
1.46811e-07
1.24056e-09
1.46733e-07
1.31685e-09
1.46767e-07
1.40768e-09
1.46665e-07
1.52823e-09
1.46712e-07
1.66296e-09
1.46586e-07
1.83555e-09
1.4664e-07
2.0223e-09
1.46491e-07
2.25803e-09
1.46546e-07
2.50801e-09
1.46374e-07
2.82203e-09
1.46421e-07
3.15022e-09
1.46225e-07
3.56264e-09
1.46255e-07
3.98865e-09
1.46032e-07
4.52576e-09
1.46033e-07
5.07492e-09
1.45778e-07
5.77079e-09
1.45734e-07
6.47546e-09
1.45436e-07
7.37394e-09
1.4533e-07
8.2752e-09
1.44971e-07
9.43235e-09
1.44777e-07
1.05818e-08
1.44331e-07
1.20689e-08
1.44012e-07
1.35308e-08
1.43438e-07
1.54378e-08
1.42944e-07
1.72904e-08
1.42178e-07
1.97296e-08
1.41432e-07
2.20661e-08
1.40381e-07
2.51755e-08
1.39273e-07
2.81021e-08
1.37792e-07
3.20471e-08
1.3616e-07
3.56754e-08
1.34035e-07
4.06435e-08
1.31649e-07
4.5075e-08
1.28565e-07
5.1251e-08
1.25108e-07
5.65573e-08
1.20656e-07
6.4012e-08
1.157e-07
7.02785e-08
1.0969e-07
7.84581e-08
1.02495e-07
8.63147e-08
9.40653e-08
9.47864e-08
8.42463e-08
1.03134e-07
7.30528e-08
1.11352e-07
6.04692e-08
1.19035e-07
4.66335e-08
1.25828e-07
3.17327e-08
1.31378e-07
1.60688e-08
1.35298e-07
1.37342e-07
1.46869e-07
1.13932e-09
1.46881e-07
1.15655e-09
1.46846e-07
1.19373e-09
1.46881e-07
1.24646e-09
1.46822e-07
1.32323e-09
1.46877e-07
1.41467e-09
1.46797e-07
1.53603e-09
1.4687e-07
1.67171e-09
1.4677e-07
1.84554e-09
1.46855e-07
2.03372e-09
1.46739e-07
2.27131e-09
1.46831e-07
2.5234e-09
1.46701e-07
2.84018e-09
1.46795e-07
3.1715e-09
1.46651e-07
3.58803e-09
1.46741e-07
4.01869e-09
1.46584e-07
4.56197e-09
1.46661e-07
5.11809e-09
1.4649e-07
5.82332e-09
1.46543e-07
6.53855e-09
1.46352e-07
7.45137e-09
1.46369e-07
8.3688e-09
1.46148e-07
9.54813e-09
1.46109e-07
1.07226e-08
1.45838e-07
1.22443e-08
1.45716e-07
1.37449e-08
1.45363e-07
1.57063e-08
1.45116e-07
1.76193e-08
1.44629e-07
2.01446e-08
1.4419e-07
2.25752e-08
1.43486e-07
2.58218e-08
1.42754e-07
2.88938e-08
1.41697e-07
3.30585e-08
1.40515e-07
3.69081e-08
1.38896e-07
4.22311e-08
1.37024e-07
4.69897e-08
1.34516e-07
5.37427e-08
1.31599e-07
5.95114e-08
1.27708e-07
6.7903e-08
1.23213e-07
7.48106e-08
1.17281e-07
8.44088e-08
1.10201e-07
9.34422e-08
1.01822e-07
1.03201e-07
9.18549e-08
1.13159e-07
8.02848e-08
1.22976e-07
6.69702e-08
1.32421e-07
5.20262e-08
1.40845e-07
3.56067e-08
1.47882e-07
1.8101e-08
1.5289e-07
1.55533e-07
1.46871e-07
1.12725e-09
1.46901e-07
1.14433e-09
1.46885e-07
1.18116e-09
1.46939e-07
1.23343e-09
1.46901e-07
1.3095e-09
1.46978e-07
1.40017e-09
1.46921e-07
1.52045e-09
1.47019e-07
1.65507e-09
1.46948e-07
1.82743e-09
1.47064e-07
2.01424e-09
1.46983e-07
2.24996e-09
1.47114e-07
2.50046e-09
1.47027e-07
2.81499e-09
1.4717e-07
3.14459e-09
1.47082e-07
3.5586e-09
1.47232e-07
3.98768e-09
1.47146e-07
4.52843e-09
1.473e-07
5.08359e-09
1.47219e-07
5.7868e-09
1.4737e-07
6.50259e-09
1.47294e-07
7.41489e-09
1.47436e-07
8.33596e-09
1.4736e-07
9.51816e-09
1.47481e-07
1.0702e-08
1.47395e-07
1.22333e-08
1.47476e-07
1.37538e-08
1.47358e-07
1.57374e-08
1.47367e-07
1.76884e-08
1.47177e-07
2.02587e-08
1.4706e-07
2.27582e-08
1.46725e-07
2.60902e-08
1.46391e-07
2.9282e-08
1.45788e-07
3.36042e-08
1.45084e-07
3.76536e-08
1.43997e-07
4.32679e-08
1.42681e-07
4.83357e-08
1.40716e-07
5.56629e-08
1.38431e-07
6.18126e-08
1.34739e-07
7.15508e-08
1.31126e-07
7.84254e-08
1.26427e-07
8.90572e-08
1.19744e-07
1.00096e-07
1.11513e-07
1.11376e-07
1.01274e-07
1.23346e-07
8.90049e-08
1.35175e-07
7.45631e-08
1.46788e-07
5.80866e-08
1.57231e-07
3.98323e-08
1.6604e-07
2.0268e-08
1.72349e-07
1.75693e-07
1.46903e-07
1.09816e-09
1.4695e-07
1.11483e-09
1.46951e-07
1.15076e-09
1.47023e-07
1.20178e-09
1.47005e-07
1.27601e-09
1.47103e-07
1.36452e-09
1.47069e-07
1.48193e-09
1.47191e-07
1.6134e-09
1.47148e-07
1.78172e-09
1.47294e-07
1.96427e-09
1.47246e-07
2.19463e-09
1.47415e-07
2.43959e-09
1.4737e-07
2.74724e-09
1.47561e-07
3.0699e-09
1.47525e-07
3.47532e-09
1.47737e-07
3.89594e-09
1.47719e-07
4.42625e-09
1.4795e-07
4.97144e-09
1.47956e-07
5.66239e-09
1.48208e-07
6.36694e-09
1.48244e-07
7.26553e-09
1.48515e-07
8.17485e-09
1.48585e-07
9.34289e-09
1.48873e-07
1.05162e-08
1.48976e-07
1.20352e-08
1.49271e-07
1.35496e-08
1.49398e-07
1.55271e-08
1.49684e-07
1.74829e-08
1.4981e-07
2.00619e-08
1.50049e-07
2.2588e-08
1.50123e-07
2.59592e-08
1.50244e-07
2.92189e-08
1.50165e-07
3.36392e-08
1.50037e-07
3.78288e-08
1.49622e-07
4.36531e-08
1.49021e-07
4.89755e-08
1.47933e-07
5.67351e-08
1.46508e-07
6.32699e-08
1.44106e-07
7.3953e-08
1.41462e-07
8.10957e-08
1.36413e-07
4.91995e-08
4.49369e-08
1.29862e-07
5.12096e-08
5.54895e-08
1.22226e-07
5.72738e-08
6.17841e-08
1.12245e-07
6.43069e-08
6.90866e-08
9.99247e-08
7.12935e-08
7.62723e-08
8.48243e-08
7.85078e-08
8.34723e-08
6.6939e-08
8.5349e-08
8.98687e-08
4.63877e-08
9.15408e-08
9.51674e-08
2.37708e-08
9.63693e-08
9.87209e-08
9.939e-08
1.00205e-07
1.46915e-07
1.05235e-09
1.4698e-07
1.06835e-09
1.46999e-07
1.10283e-09
1.4709e-07
1.15181e-09
1.47091e-07
1.22304e-09
1.4721e-07
1.30804e-09
1.47199e-07
1.42074e-09
1.47346e-07
1.54705e-09
1.47331e-07
1.70869e-09
1.47507e-07
1.88418e-09
1.47494e-07
2.10551e-09
1.477e-07
2.34122e-09
1.47699e-07
2.63704e-09
1.47936e-07
2.94786e-09
1.47956e-07
3.33807e-09
1.48227e-07
3.74386e-09
1.4828e-07
4.25496e-09
1.48588e-07
4.78193e-09
1.48684e-07
5.44898e-09
1.49034e-07
6.13167e-09
1.49187e-07
7.0011e-09
1.49585e-07
7.88502e-09
1.49805e-07
9.01837e-09
1.50257e-07
1.01636e-08
1.50553e-07
1.16428e-08
1.51063e-07
1.31289e-08
1.51441e-07
1.50637e-08
1.52005e-07
1.69961e-08
1.52458e-07
1.95342e-08
1.53058e-07
2.20533e-08
1.53558e-07
2.5395e-08
1.54142e-07
2.86866e-08
1.54623e-07
3.31047e-08
1.55079e-07
3.74122e-08
1.55408e-07
4.32793e-08
1.55499e-07
4.89118e-08
1.55463e-07
5.67331e-08
1.54694e-07
6.40569e-08
1.5412e-07
7.44916e-08
7.58893e-08
8.38757e-08
7.54618e-08
-4.60102e-08
4.66593e-08
7.52717e-08
-7.30918e-08
7.18568e-08
5.23905e-08
-7.04363e-08
6.86538e-08
5.89999e-08
-6.66341e-08
6.43328e-08
6.65489e-08
-6.17442e-08
5.86765e-08
7.42987e-08
-5.52741e-08
5.14094e-08
8.23053e-08
-4.71571e-08
4.2429e-08
9.00065e-08
-3.72994e-08
3.17831e-08
9.69832e-08
-2.5907e-08
1.97227e-08
1.02477e-07
-1.32856e-08
6.68852e-09
1.0591e-07
1.4693e-07
9.90608e-10
1.4701e-07
1.00569e-09
1.47045e-07
1.03819e-09
1.47153e-07
1.08437e-09
1.47173e-07
1.15153e-09
1.47311e-07
1.23169e-09
1.47322e-07
1.33797e-09
1.47492e-07
1.45714e-09
1.47502e-07
1.60964e-09
1.47707e-07
1.7753e-09
1.47725e-07
1.98424e-09
1.47968e-07
2.2069e-09
1.48006e-07
2.48639e-09
1.48289e-07
2.78029e-09
1.48359e-07
3.14936e-09
1.48689e-07
3.53356e-09
1.48806e-07
4.01761e-09
1.4919e-07
4.51739e-09
1.49371e-07
5.15025e-09
1.49819e-07
5.79916e-09
1.50081e-07
6.62586e-09
1.50607e-07
7.46848e-09
1.50972e-07
8.54921e-09
1.51591e-07
9.64506e-09
1.52078e-07
1.10607e-08
1.52808e-07
1.24898e-08
1.53439e-07
1.43501e-08
1.54293e-07
1.62206e-08
1.55082e-07
1.86754e-08
1.56068e-07
2.1135e-08
1.57015e-07
2.4391e-08
1.58115e-07
2.76427e-08
1.59191e-07
3.19865e-08
1.60335e-07
3.63121e-08
1.61446e-07
4.2139e-08
1.62455e-07
4.7937e-08
1.63403e-07
5.57675e-08
1.63848e-07
6.36377e-08
1.64315e-07
7.40155e-08
8.24958e-08
8.50671e-08
8.06504e-08
-4.72143e-08
4.7536e-08
8.22111e-08
-7.94062e-08
7.84742e-08
-5.33573e-08
5.42353e-08
-7.73946e-08
7.59509e-08
-6.06769e-08
6.20653e-08
-7.42746e-08
7.21655e-08
-6.87874e-08
7.08383e-08
-6.97479e-08
6.67451e-08
-7.73653e-08
8.03048e-08
-6.33587e-08
5.93082e-08
-8.61769e-08
9.01553e-08
-5.47292e-08
4.95554e-08
-9.49395e-08
1.00035e-07
-4.38211e-08
3.75331e-08
-1.02958e-07
1.09161e-07
-3.07332e-08
2.34843e-08
-1.09358e-07
1.16516e-07
-1.58692e-08
8.00151e-09
-1.13348e-07
1.21121e-07
1.46947e-07
9.13734e-10
1.47043e-07
9.27666e-10
1.47094e-07
9.57676e-10
1.47219e-07
1.00034e-09
1.47256e-07
1.06237e-09
1.47414e-07
1.13645e-09
1.47446e-07
1.23463e-09
1.47639e-07
1.3448e-09
1.47674e-07
1.48572e-09
1.47907e-07
1.63897e-09
1.47957e-07
1.83215e-09
1.48233e-07
2.03828e-09
1.48311e-07
2.29686e-09
1.48637e-07
2.56923e-09
1.48759e-07
2.91099e-09
1.49144e-07
3.26751e-09
1.49326e-07
3.71628e-09
1.49781e-07
4.18087e-09
1.50046e-07
4.76849e-09
1.50587e-07
5.37307e-09
1.50959e-07
6.14219e-09
1.51606e-07
6.92954e-09
1.52113e-07
7.93758e-09
1.52892e-07
8.96545e-09
1.53568e-07
1.02903e-08
1.54508e-07
1.16374e-08
1.55389e-07
1.33856e-08
1.56525e-07
1.51605e-08
1.57648e-07
1.74797e-08
1.59012e-07
1.98341e-08
1.60411e-07
2.29311e-08
1.62023e-07
2.60807e-08
1.63712e-07
3.02475e-08
1.65556e-07
3.45049e-08
1.67503e-07
4.01539e-08
1.6948e-07
4.59842e-08
1.71534e-07
5.36847e-08
1.73375e-07
6.18103e-08
1.75094e-07
7.22781e-08
8.94929e-08
8.39169e-08
8.67577e-08
-4.75969e-08
4.74453e-08
8.96861e-08
-8.64542e-08
8.60046e-08
-5.49139e-08
5.53133e-08
-8.54117e-08
8.44528e-08
-6.33276e-08
6.42362e-08
-8.32556e-08
8.15554e-08
-7.28237e-08
7.44717e-08
-7.9522e-08
7.67282e-08
-8.32155e-08
8.59505e-08
-7.35643e-08
6.94025e-08
-9.38963e-08
9.79793e-08
-6.44632e-08
5.88349e-08
-1.05246e-07
1.10788e-07
-5.24126e-08
4.52068e-08
-1.15929e-07
1.23036e-07
-3.72468e-08
2.86074e-08
-1.24662e-07
1.33192e-07
-1.94077e-08
9.80849e-09
-1.30168e-07
1.3965e-07
1.4696e-07
8.22984e-10
1.4707e-07
8.35548e-10
1.47135e-07
8.62609e-10
1.47275e-07
9.01093e-10
1.47329e-07
9.57028e-10
1.47503e-07
1.02386e-09
1.47553e-07
1.11243e-09
1.47767e-07
1.21184e-09
1.47824e-07
1.33902e-09
1.48082e-07
1.47737e-09
1.4816e-07
1.65179e-09
1.48468e-07
1.83801e-09
1.4858e-07
2.07163e-09
1.48947e-07
2.3179e-09
1.49113e-07
2.62695e-09
1.4955e-07
2.94968e-09
1.4979e-07
3.35596e-09
1.50313e-07
3.77714e-09
1.50654e-07
4.30991e-09
1.51283e-07
4.85909e-09
1.51755e-07
5.55774e-09
1.52519e-07
6.2748e-09
1.53159e-07
7.19269e-09
1.54093e-07
8.132e-09
1.54947e-07
9.34209e-09
1.56095e-07
1.05787e-08
1.57217e-07
1.21819e-08
1.58634e-07
1.3821e-08
1.60086e-07
1.59589e-08
1.61834e-07
1.81508e-08
1.63686e-07
2.10245e-08
1.6583e-07
2.39888e-08
1.68149e-07
2.78883e-08
1.70739e-07
3.19546e-08
1.73565e-07
3.7301e-08
1.76596e-07
4.29805e-08
1.79883e-07
5.03841e-08
1.8321e-07
5.84984e-08
1.86656e-07
6.88286e-08
9.65804e-08
8.07287e-08
9.32692e-08
-4.69369e-08
4.61661e-08
9.73947e-08
-9.42062e-08
9.44024e-08
-5.54846e-08
5.52454e-08
-9.44897e-08
9.42365e-08
-6.49478e-08
6.51603e-08
-9.37384e-08
9.27805e-08
-7.60063e-08
7.69251e-08
-9.14098e-08
8.94342e-08
-8.87881e-08
9.07241e-08
-4.3378e-08
-5.1959e-08
4.20759e-08
5.32811e-08
-3.90192e-08
-6.0402e-08
3.72254e-08
6.22304e-08
-3.20294e-08
-6.83036e-08
2.9668e-08
7.07134e-08
-2.22844e-08
-7.4824e-08
1.93244e-08
7.78468e-08
-1.00935e-08
8.22184e-08
-7.8785e-08
6.73441e-09
1.46972e-07
7.19634e-10
1.47094e-07
7.30635e-10
1.47173e-07
7.54318e-10
1.47327e-07
7.88015e-10
1.47396e-07
8.36974e-10
1.47587e-07
8.95505e-10
1.47655e-07
9.73041e-10
1.47887e-07
1.06014e-09
1.47966e-07
1.17151e-09
1.48247e-07
1.29277e-09
1.48351e-07
1.44558e-09
1.48688e-07
1.6089e-09
1.48834e-07
1.81369e-09
1.49238e-07
2.02986e-09
1.49447e-07
2.30097e-09
1.4993e-07
2.58456e-09
1.50227e-07
2.94131e-09
1.5081e-07
3.31194e-09
1.51223e-07
3.78036e-09
1.51932e-07
4.26451e-09
1.52499e-07
4.87979e-09
1.53368e-07
5.51348e-09
1.54133e-07
6.32355e-09
1.55207e-07
7.15629e-09
1.56228e-07
8.22718e-09
1.57566e-07
9.32806e-09
1.58914e-07
1.07519e-08
1.6059e-07
1.22192e-08
1.62352e-07
1.41268e-08
1.64461e-07
1.61032e-08
1.66744e-07
1.86835e-08
1.69399e-07
2.13818e-08
1.72328e-07
2.49134e-08
1.75656e-07
2.86605e-08
1.79362e-07
3.3563e-08
1.83485e-07
3.88768e-08
1.88055e-07
4.57965e-08
1.93035e-07
5.35229e-08
1.98376e-07
6.34853e-08
1.03843e-07
7.50274e-08
1.00227e-07
-4.49713e-08
4.34371e-08
1.05422e-07
-1.02587e-07
1.03604e-07
-5.46994e-08
5.36501e-08
-1.04562e-07
1.05258e-07
-6.50487e-08
6.4325e-08
-1.05735e-07
1.05818e-07
-7.75454e-08
7.74421e-08
-1.05433e-07
1.04445e-07
-9.24785e-08
9.34532e-08
-5.21606e-08
-5.65034e-08
5.1533e-08
5.71396e-08
-4.83982e-08
-6.68747e-08
4.69237e-08
6.83747e-08
-4.11692e-08
-7.76676e-08
3.87056e-08
8.01799e-08
-2.96087e-08
-8.72467e-08
2.59904e-08
9.09407e-08
-1.37049e-08
9.79339e-08
-9.33576e-08
9.22628e-09
1.46984e-07
6.05332e-10
1.47117e-07
6.14594e-10
1.47207e-07
6.34533e-10
1.47373e-07
6.62908e-10
1.47454e-07
7.04131e-10
1.47658e-07
7.53425e-10
1.4774e-07
8.18722e-10
1.47989e-07
8.92094e-10
1.48086e-07
9.85908e-10
1.48386e-07
1.0881e-09
1.48512e-07
1.21687e-09
1.48874e-07
1.35457e-09
1.49048e-07
1.52723e-09
1.49484e-07
1.70962e-09
1.49728e-07
1.93834e-09
1.50254e-07
2.17783e-09
1.50596e-07
2.47907e-09
1.51234e-07
2.79243e-09
1.51709e-07
3.18839e-09
1.5249e-07
3.59838e-09
1.53138e-07
4.11922e-09
1.54103e-07
4.65696e-09
1.54979e-07
5.34395e-09
1.56182e-07
6.05256e-09
1.57353e-07
6.96289e-09
1.58866e-07
7.90312e-09
1.6042e-07
9.11726e-09
1.62339e-07
1.03765e-08
1.64388e-07
1.20098e-08
1.66837e-07
1.37171e-08
1.69529e-07
1.59384e-08
1.72671e-07
1.82895e-08
1.76193e-07
2.1353e-08
1.80233e-07
2.46549e-08
1.84818e-07
2.89549e-08
1.9001e-07
3.37043e-08
1.95922e-07
3.9878e-08
2.02546e-07
4.69023e-08
2.10002e-07
5.6038e-08
1.10968e-07
6.67356e-08
1.07311e-07
-4.14736e-08
3.90972e-08
1.13391e-07
-1.11342e-07
1.13352e-07
-5.2186e-08
5.0156e-08
-1.15406e-07
1.17335e-07
-6.31072e-08
6.11668e-08
-1.19155e-07
1.20716e-07
-7.67695e-08
7.52066e-08
-1.21933e-07
1.2261e-07
-9.38087e-08
9.31412e-08
-6.30455e-08
-5.89584e-08
6.28469e-08
5.91545e-08
-6.09794e-08
-7.24634e-08
5.98618e-08
7.3597e-08
-5.46674e-08
-8.781e-08
5.21347e-08
9.03929e-08
-4.14278e-08
-1.0284e-07
3.67421e-08
1.07624e-07
-1.99154e-08
1.19816e-07
-1.13242e-07
1.34746e-08
1.46993e-07
4.81738e-10
1.47137e-07
4.89116e-10
1.47237e-07
5.04994e-10
1.47413e-07
5.27597e-10
1.47506e-07
5.60426e-10
1.47721e-07
5.997e-10
1.47817e-07
6.51709e-10
1.4808e-07
7.10178e-10
1.48192e-07
7.84918e-10
1.4851e-07
8.6638e-10
1.48656e-07
9.69e-10
1.49039e-07
1.07882e-09
1.49239e-07
1.21647e-09
1.49702e-07
1.36201e-09
1.49979e-07
1.54447e-09
1.50539e-07
1.73571e-09
1.50924e-07
1.97618e-09
1.51608e-07
2.22667e-09
1.52137e-07
2.54306e-09
1.52978e-07
2.87121e-09
1.53699e-07
3.2879e-09
1.54744e-07
3.71901e-09
1.55715e-07
4.2695e-09
1.57027e-07
4.83886e-09
1.58327e-07
5.56983e-09
1.59989e-07
6.32749e-09
1.6172e-07
7.30508e-09
1.63846e-07
8.32371e-09
1.66144e-07
9.64359e-09
1.68889e-07
1.10316e-08
1.71936e-07
1.28358e-08
1.75512e-07
1.47598e-08
1.79558e-07
1.72659e-08
1.84251e-07
1.99911e-08
1.89635e-07
2.35461e-08
1.95844e-07
2.75084e-08
2.03019e-07
3.26953e-08
2.11279e-07
3.86366e-08
2.2083e-07
4.65004e-08
1.17624e-07
5.57198e-08
1.14195e-07
-3.62726e-08
3.29936e-08
1.2095e-07
-1.20062e-07
1.23216e-07
-4.76056e-08
4.44467e-08
-1.26552e-07
1.29989e-07
-5.85582e-08
5.51268e-08
-1.33507e-07
1.37044e-07
-7.27843e-08
6.92665e-08
-1.40489e-07
1.4369e-07
-9.13936e-08
8.82273e-08
-7.60935e-08
-5.90018e-08
7.66779e-08
5.8399e-08
-7.74322e-08
-7.60485e-08
7.72236e-08
7.62521e-08
-7.49775e-08
-9.78765e-08
7.38592e-08
9.90268e-08
-6.16632e-08
-1.22762e-07
5.56963e-08
1.28863e-07
-3.18451e-08
1.52587e-07
-1.42372e-07
2.18157e-08
1.46999e-07
3.50808e-10
1.47149e-07
3.56184e-10
1.47257e-07
3.67753e-10
1.47441e-07
3.84224e-10
1.47541e-07
4.08145e-10
1.47766e-07
4.36766e-10
1.47871e-07
4.74667e-10
1.48145e-07
5.17285e-10
1.48269e-07
5.71758e-10
1.486e-07
6.3115e-10
1.4876e-07
7.05959e-10
1.4916e-07
7.86051e-10
1.49378e-07
8.86431e-10
1.49863e-07
9.92621e-10
1.50163e-07
1.12572e-09
1.50753e-07
1.26535e-09
1.51168e-07
1.44085e-09
1.5189e-07
1.62388e-09
1.5246e-07
1.85493e-09
1.53351e-07
2.09497e-09
1.54128e-07
2.39951e-09
1.5524e-07
2.71533e-09
1.56287e-07
3.11808e-09
1.57689e-07
3.53597e-09
1.59094e-07
4.07151e-09
1.60881e-07
4.62901e-09
1.62758e-07
5.34658e-09
1.65059e-07
6.09862e-09
1.67566e-07
7.06992e-09
1.7056e-07
8.09915e-09
1.73912e-07
9.43165e-09
1.77852e-07
1.08664e-08
1.82355e-07
1.27272e-08
1.87602e-07
1.47739e-08
1.93695e-07
1.74349e-08
2.00778e-07
2.04376e-08
2.09105e-07
2.43685e-08
2.18811e-07
2.89219e-08
2.30341e-07
3.49942e-08
1.23385e-07
4.21685e-08
1.20472e-07
-2.93194e-08
2.52062e-08
1.27544e-07
-1.28191e-07
1.32547e-07
-4.06991e-08
3.63525e-08
-1.37258e-07
1.42382e-07
-5.08945e-08
4.57941e-08
-1.47839e-07
1.53772e-07
-6.46299e-08
5.87381e-08
-1.59985e-07
1.66618e-07
-8.34856e-08
7.69151e-08
-9.07852e-08
-5.49903e-08
9.26046e-08
5.31311e-08
-9.78504e-08
-7.48064e-08
9.92655e-08
7.33492e-08
-1.01466e-07
-1.03612e-07
1.03884e-07