/*--------------------------------*- C++ -*----------------------------------*\
| =========                 |                                                 |
| \\      /  F ield         | foam-extend: Open Source CFD                    |
|  \\    /   O peration     | Version:     4.0                                |
|   \\  /    A nd           | Web:         http://www.foam-extend.org         |
|    \\/     M anipulation  |                                                 |
\*---------------------------------------------------------------------------*/
FoamFile
{
    version     2.0;
    format      ascii;
    class       volVectorField;
    location    "3e-05";
    object      U;
}
// * * * * * * * * * * * * * * * * * * * * * * * * * * * * * * * * * * * * * //

dimensions      [0 1 -1 0 0 0 0];

internalField   nonuniform List<vector> 
28770
(
(4.87921 0.00234951 0)
(5.1109 0.00238374 0)
(4.8708 0.002462 0)
(5.09896 0.00256676 0)
(4.86323 0.0027286 0)
(5.08443 0.0029091 0)
(4.85572 0.00316548 0)
(5.0668 0.00343066 0)
(4.8474 0.00379889 0)
(5.04546 0.00416157 0)
(4.83719 0.0046663 0)
(5.01974 0.00514355 0)
(4.82382 0.00581812 0)
(4.98877 0.00643167 0)
(4.80579 0.00731959 0)
(4.95143 0.00809641 0)
(4.78129 0.00925304 0)
(4.90626 0.010226 0)
(4.74819 0.01172 0)
(4.8514 0.0129288 0)
(4.70394 0.0148428 0)
(4.78442 0.0163349 0)
(4.64547 0.0187651 0)
(4.70233 0.0205964 0)
(4.56915 0.02365 0)
(4.60137 0.0258855 0)
(4.47071 0.029674 0)
(4.47705 0.0323875 0)
(4.34515 0.0370152 0)
(4.32407 0.0402869 0)
(4.18678 0.0458326 0)
(4.13642 0.0497434 0)
(3.98932 0.0562344 0)
(3.90756 0.060854 0)
(3.74616 0.0682343 0)
(3.63087 0.0735983 0)
(3.45083 0.0816979 0)
(3.30021 0.0877686 0)
(3.09776 0.0962837 0)
(2.91088 0.102891 0)
(2.68332 0.111387 0)
(2.46076 0.118167 0)
(2.2071 0.126099 0)
(1.95144 0.132474 0)
(1.6731 0.139223 0)
(1.38937 0.14449 0)
(1.09054 0.149432 0)
(0.786249 0.152918 0)
(0.473796 0.155536 0)
(0.158617 0.156757 0)
(4.87924 0.00693582 0)
(5.11101 0.00703973 0)
(4.87098 0.00726095 0)
(5.09922 0.00757922 0)
(4.86356 0.00803489 0)
(5.08486 0.00858635 0)
(4.85624 0.00930358 0)
(5.06742 0.0101208 0)
(4.84812 0.0111419 0)
(5.04631 0.0122728 0)
(4.83815 0.0136571 0)
(5.02087 0.0151674 0)
(4.82508 0.0169937 0)
(4.99024 0.0189695 0)
(4.80742 0.0213398 0)
(4.95332 0.0238907 0)
(4.78338 0.0269334 0)
(4.90868 0.0301961 0)
(4.75084 0.0340701 0)
(4.85445 0.0382107 0)
(4.70727 0.043109 0)
(4.78827 0.0483243 0)
(4.64964 0.0544758 0)
(4.70711 0.0609916 0)
(4.57433 0.0686601 0)
(4.60727 0.0767245 0)
(4.47708 0.0862001 0)
(4.48424 0.09607 0)
(4.35288 0.10765 0)
(4.3327 0.119566 0)
(4.19604 0.13352 0)
(4.1466 0.147667 0)
(4.0002 0.164174 0)
(3.91931 0.18063 0)
(3.75864 0.199691 0)
(3.64405 0.21835 0)
(3.46471 0.239681 0)
(3.31449 0.260164 0)
(3.11256 0.283079 0)
(2.92567 0.304645 0)
(2.69828 0.327991 0)
(2.47516 0.349455 0)
(2.22111 0.371642 0)
(1.96429 0.391382 0)
(1.68487 0.410527 0)
(1.39936 0.426632 0)
(1.09879 0.440805 0)
(0.792226 0.451405 0)
(0.477555 0.458968 0)
(0.159812 0.462673 0)
(4.87931 0.0114949 0)
(5.11122 0.0116657 0)
(4.87133 0.012039 0)
(5.09972 0.0125608 0)
(4.86421 0.0133311 0)
(5.08568 0.0142332 0)
(4.85723 0.0154489 0)
(5.0686 0.0167814 0)
(4.84951 0.0185187 0)
(5.04793 0.0203547 0)
(4.84002 0.022721 0)
(5.02301 0.0251595 0)
(4.82754 0.0282994 0)
(4.99303 0.031469 0)
(4.8106 0.0355698 0)
(4.9569 0.0396334 0)
(4.78747 0.0449328 0)
(4.91325 0.0500921 0)
(4.75604 0.0568849 0)
(4.86025 0.0633848 0)
(4.71384 0.0720288 0)
(4.79555 0.0801611 0)
(4.65787 0.0910788 0)
(4.71622 0.101182 0)
(4.58456 0.114855 0)
(4.61855 0.12731 0)
(4.48965 0.144259 0)
(4.49805 0.159474 0)
(4.36816 0.18022 0)
(4.3494 0.198604 0)
(4.2143 0.223595 0)
(4.16643 0.245508 0)
(4.0216 0.275005 0)
(3.94234 0.300685 0)
(3.7831 0.334608 0)
(3.67002 0.364057 0)
(3.49177 0.401801 0)
(3.3427 0.434617 0)
(3.14131 0.474891 0)
(2.95486 0.510049 0)
(2.7272 0.550816 0)
(2.5035 0.586415 0)
(2.24816 0.624974 0)
(1.98952 0.65815 0)
(1.70762 0.69132 0)
(1.41901 0.71861 0)
(1.11479 0.743111 0)
(0.804033 0.761147 0)
(0.48483 0.774202 0)
(0.162245 0.780516 0)
(4.87941 0.0158075 0)
(5.11154 0.016044 0)
(4.87186 0.0165519 0)
(5.10048 0.0172752 0)
(4.8652 0.0183222 0)
(5.08694 0.0195746 0)
(4.85873 0.0212245 0)
(5.07042 0.0230786 0)
(4.85162 0.0254313 0)
(5.05043 0.027994 0)
(4.84286 0.0311901 0)
(5.02633 0.0346071 0)
(4.83126 0.0388348 0)
(4.99736 0.0432972 0)
(4.81541 0.0488001 0)
(4.96249 0.0545512 0)
(4.79362 0.0616381 0)
(4.92038 0.0689812 0)
(4.76386 0.0780358 0)
(4.86928 0.0873412 0)
(4.7237 0.0988313 0)
(4.80692 0.110541 0)
(4.67022 0.125024 0)
(4.73039 0.139649 0)
(4.59992 0.15777 0)
(4.63606 0.175884 0)
(4.50857 0.198355 0)
(4.51945 0.220568 0)
(4.3912 0.248128 0)
(4.37518 0.275033 0)
(4.24197 0.308359 0)
(4.19694 0.340463 0)
(4.05423 0.380028 0)
(3.97768 0.417621 0)
(3.8207 0.463481 0)
(3.70984 0.506475 0)
(3.5338 0.557995 0)
(3.38606 0.60569 0)
(3.18642 0.661256 0)
(3.00002 0.712074 0)
(2.77305 0.768908 0)
(2.54778 0.820124 0)
(2.29135 0.874345 0)
(2.02926 0.921996 0)
(1.74407 0.968984 0)
(1.45008 1.00823 0)
(1.14044 1.04316 0)
(0.822669 1.06916 0)
(0.496521 1.08785 0)
(0.165995 1.09698 0)
(4.87954 0.019957 0)
(5.11195 0.0202544 0)
(4.87254 0.0209013 0)
(5.10145 0.0218105 0)
(4.86646 0.0231452 0)
(5.08852 0.0247178 0)
(4.86066 0.026824 0)
(5.07272 0.029149 0)
(4.85432 0.032158 0)
(5.05356 0.0353656 0)
(4.8465 0.0394632 0)
(5.0305 0.0437303 0)
(4.83605 0.0491662 0)
(5.00278 0.054724 0)
(4.82162 0.0618229 0)
(4.96948 0.0689651 0)
(4.80159 0.0781402 0)
(4.92931 0.0872329 0)
(4.77402 0.0989994 0)
(4.88061 0.11049 0)
(4.73656 0.125478 0)
(4.8212 0.139903 0)
(4.68637 0.158866 0)
(4.74828 0.176853 0)
(4.62004 0.200663 0)
(4.65829 0.222922 0)
(4.5334 0.252546 0)
(4.54679 0.27985 0)
(4.42149 0.31629 0)
(4.40838 0.349425 0)
(4.27836 0.393602 0)
(4.23661 0.433281 0)
(4.09715 0.485839 0)
(4.02406 0.532578 0)
(3.8701 0.593584 0)
(3.76257 0.647507 0)
(3.58892 0.716076 0)
(3.44381 0.77663 0)
(3.24548 0.850549 0)
(3.06027 0.91608 0)
(2.833 0.991639 0)
(2.60674 1.0588 0)
(2.34791 1.13097 0)
(2.08218 1.19425 0)
(1.79206 1.25694 0)
(1.49164 1.30946 0)
(1.17445 1.35615 0)
(0.847801 1.39108 0)
(0.512067 1.4161 0)
(0.171177 1.42837 0)
(4.8797 0.0237372 0)
(5.11247 0.0240926 0)
(4.87338 0.0248578 0)
(5.10268 0.0259449 0)
(4.86805 0.0275229 0)
(5.09054 0.0294052 0)
(4.86307 0.0318933 0)
(5.07565 0.0346803 0)
(4.8577 0.0382313 0)
(5.05758 0.042084 0)
(4.85105 0.0469136 0)
(5.03583 0.0520521 0)
(4.84202 0.0584498 0)
(5.00975 0.065163 0)
(4.82935 0.0735055 0)
(4.97847 0.082163 0)
(4.8115 0.0929302 0)
(4.94081 0.103995 0)
(4.78663 0.117787 0)
(4.89521 0.131829 0)
(4.7525 0.149385 0)
(4.83961 0.167089 0)
(4.7064 0.189299 0)
(4.77132 0.211474 0)
(4.64502 0.239383 0)
(4.68686 0.266946 0)
(4.56431 0.301737 0)
(4.58187 0.335692 0)
(4.45932 0.37863 0)
(4.45088 0.420002 0)
(4.32408 0.472312 0)
(4.28726 0.522038 0)
(4.15146 0.584695 0)
(4.08318 0.643445 0)
(3.93323 0.716824 0)
(3.82978 0.784743 0)
(3.66023 0.868134 0)
(3.51773 0.944468 0)
(3.32297 1.0355 0)
(3.13817 1.1181 0)
(2.9128 1.2123 0)
(2.6842 1.29699 0)
(2.42398 1.38783 0)
(2.1526 1.46797 0)
(1.85688 1.54756 0)
(1.54722 1.61454 0)
(1.22036 1.67431 0)
(0.881369 1.71919 0)
(0.533031 1.75143 0)
(0.178012 1.76727 0)
(4.87989 0.0272302 0)
(5.11305 0.0276372 0)
(4.87435 0.0285204 0)
(5.10406 0.0297648 0)
(4.86985 0.0315871 0)
(5.0928 0.0337406 0)
(4.86582 0.0366168 0)
(5.07892 0.039803 0)
(4.86157 0.0439136 0)
(5.06207 0.0483138 0)
(4.85626 0.0539142 0)
(5.04179 0.0597759 0)
(4.84889 0.0672105 0)
(5.01753 0.0748586 0)
(4.83827 0.0845772 0)
(4.9885 0.094427 0)
(4.82297 0.107005 0)
(4.95365 0.119578 0)
(4.80127 0.135739 0)
(4.91155 0.151678 0)
(4.77108 0.172316 0)
(4.86029 0.1924 0)
(4.72983 0.218602 0)
(4.79732 0.243755 0)
(4.67436 0.276804 0)
(4.71934 0.308092 0)
(4.60072 0.349455 0)
(4.62208 0.388062 0)
(4.50404 0.439333 0)
(4.50011 0.4865 0)
(4.37827 0.549259 0)
(4.34665 0.606183 0)
(4.21603 0.681733 0)
(4.15344 0.749389 0)
(4.00846 0.838309 0)
(3.91073 0.917216 0)
(3.74532 1.0187 0)
(3.60769 1.10855 0)
(3.41549 1.21963 0)
(3.23339 1.31871 0)
(3.00817 1.43383 0)
(2.77861 1.53778 0)
(2.51532 1.64937 0)
(2.23859 1.7493 0)
(1.93558 1.84771 0)
(1.61576 1.93196 0)
(1.27692 2.00624 0)
(0.923308 2.0629 0)
(0.559138 2.10307 0)
(0.186686 2.12308 0)
(4.8801 0.0302505 0)
(5.11373 0.0307043 0)
(4.87546 0.0316824 0)
(5.10568 0.0330707 0)
(4.87194 0.0350883 0)
(5.09546 0.0374928 0)
(4.86901 0.0406759 0)
(5.08279 0.0442378 0)
(4.86604 0.0487845 0)
(5.06737 0.0537114 0)
(4.86227 0.0599023 0)
(5.04885 0.0664792 0)
(4.85679 0.0746925 0)
(5.02676 0.083295 0)
(4.84852 0.0940254 0)
(5.00043 0.105137 0)
(4.83613 0.119019 0)
(4.96894 0.133249 0)
(4.81806 0.151084 0)
(4.93102 0.169191 0)
(4.79237 0.191978 0)
(4.88493 0.214885 0)
(4.75669 0.243845 0)
(4.82831 0.272662 0)
(4.70802 0.309261 0)
(4.758 0.345277 0)
(4.64262 0.391224 0)
(4.66987 0.435894 0)
(4.55571 0.493099 0)
(4.55851 0.54798 0)
(4.44127 0.618428 0)
(4.41697 0.685055 0)
(4.29168 0.770558 0)
(4.23649 0.850232 0)
(4.09756 0.951955 0)
(4.00641 1.04541 0)
(3.84758 1.16312 0)
(3.71447 1.27004 0)
(3.52875 1.40103 0)
(3.34791 1.51928 0)
(3.1273 1.65733 0)
(2.89525 1.78177 0)
(2.6311 1.91697 0)
(2.34681 2.0378 0)
(2.03573 2.15836 0)
(1.70244 2.26163 0)
(1.34857 2.35377 0)
(0.976179 2.42415 0)
(0.591964 2.4745 0)
(0.197614 2.49957 0)
(4.88034 0.0328778 0)
(5.11445 0.0333707 0)
(4.87667 0.0344388 0)
(5.10739 0.0359464 0)
(4.87418 0.0381506 0)
(5.09827 0.040761 0)
(4.87243 0.0442414 0)
(5.08686 0.0481067 0)
(4.87085 0.0530836 0)
(5.07295 0.0584276 0)
(4.86876 0.065214 0)
(5.05627 0.0723437 0)
(4.86535 0.081363 0)
(5.03646 0.0906835 0)
(4.85966 0.102492 0)
(5.01297 0.114525 0)
(4.8505 0.129838 0)
(4.98504 0.145245 0)
(4.83647 0.164974 0)
(4.95159 0.184578 0)
(4.81582 0.209863 0)
(4.91107 0.234679 0)
(4.7864 0.266928 0)
(4.86137 0.29818 0)
(4.74546 0.339103 0)
(4.7996 0.378235 0)
(4.68945 0.429855 0)
(4.72183 0.478519 0)
(4.61379 0.543149 0)
(4.62283 0.60315 0)
(4.51249 0.683276 0)
(4.49561 0.756454 0)
(4.37776 0.854466 0)
(4.33105 0.942495 0)
(4.19957 1.06012 0)
(4.11749 1.16424 0)
(3.96526 1.30147 0)
(3.84064 1.42222 0)
(3.65954 1.57575 0)
(3.48434 1.7125 0)
(3.26519 1.87442 0)
(3.03284 2.02356 0)
(2.76601 2.18381 0)
(2.47494 2.33145 0)
(2.15474 2.47607 0)
(1.80709 2.60333 0)
(1.43606 2.71477 0)
(1.04152 2.80174 0)
(0.632987 2.86286 0)
(0.21124 2.89385 0)
(4.88058 0.0349546 0)
(5.11526 0.0354804 0)
(4.87799 0.036614 0)
(5.10932 0.0382229 0)
(4.87665 0.040562 0)
(5.10143 0.0433497 0)
(4.8762 0.0470425 0)
(5.09145 0.0511745 0)
(4.87614 0.0564541 0)
(5.07925 0.0621748 0)
(4.8759 0.0693727 0)
(5.06467 0.0770185 0)
(4.87475 0.0865834 0)
(5.04745 0.0966004 0)
(4.87186 0.109123 0)
(5.0272 0.122089 0)
(4.86621 0.138334 0)
(5.00334 0.154985 0)
(4.85657 0.175929 0)
(4.97498 0.19719 0)
(4.84143 0.224064 0)
(4.94081 0.251084 0)
(4.81887 0.285425 0)
(4.89898 0.319607 0)
(4.78641 0.363305 0)
(4.84686 0.406329 0)
(4.74081 0.461666 0)
(4.78081 0.515494 0)
(4.67775 0.585144 0)
(4.69572 0.651977 0)
(4.59138 0.738938 0)
(4.5846 0.821112 0)
(4.47385 0.928483 0)
(4.43786 1.02825 0)
(4.31469 1.15872 0)
(4.24274 1.27787 0)
(4.10019 1.4327 0)
(3.98304 1.57207 0)
(3.81298 1.74926 0)
(3.64036 1.90792 0)
(3.43189 2.09961 0)
(3.1982 2.27307 0)
(2.93258 2.46422 0)
(2.63298 2.63899 0)
(2.30195 2.81398 0)
(1.93618 2.96818 0)
(1.54284 3.10569 0)
(1.12118 3.21347 0)
(0.68216 3.29022 0)
(0.227961 3.32918 0)
(4.88085 0.0365579 0)
(5.11607 0.0371079 0)
(4.87935 0.0382981 0)
(5.11126 0.0399807 0)
(4.8792 0.0424377 0)
(5.10461 0.0453527 0)
(4.88009 0.0492342 0)
(5.09608 0.0535544 0)
(4.88162 0.0591088 0)
(5.0856 0.0650892 0)
(4.8833 0.072671 0)
(5.07313 0.0806631 0)
(4.88453 0.0907537 0)
(5.05853 0.101224 0)
(4.88461 0.11446 0)
(5.04157 0.128014 0)
(4.88271 0.145222 0)
(5.02185 0.162637 0)
(4.87779 0.184878 0)
(4.99872 0.207135 0)
(4.8686 0.235759 0)
(4.97115 0.264085 0)
(4.8535 0.300794 0)
(4.93763 0.336703 0)
(4.83037 0.383616 0)
(4.89591 0.428944 0)
(4.79634 0.488668 0)
(4.84274 0.545588 0)
(4.74743 0.621259 0)
(4.77342 0.692253 0)
(4.6781 0.787526 0)
(4.6812 0.875267 0)
(4.58058 0.994159 0)
(4.55649 1.10128 0)
(4.44399 1.24765 0)
(4.38577 1.37641 0)
(4.25334 1.5526 0)
(4.15061 1.70474 0)
(3.9884 1.90831 0)
(3.82739 2.08606 0)
(3.62272 2.30442 0)
(3.38987 2.5119 0)
(3.12431 2.73422 0)
(2.81741 2.94743 0)
(2.47708 3.15512 0)
(2.09273 3.34428 0)
(1.67625 3.50933 0)
(1.22221 3.64145 0)
(0.746284 3.73389 0)
(0.24939 3.78156 0)
(4.88112 0.0375624 0)
(5.11696 0.0381292 0)
(4.8808 0.0393512 0)
(5.11337 0.041086 0)
(4.88191 0.0436084 0)
(5.10808 0.0466157 0)
(4.88423 0.0506005 0)
(5.10112 0.0550613 0)
(4.88744 0.060764 0)
(5.09253 0.0669465 0)
(4.89114 0.0747315 0)
(5.08237 0.0830067 0)
(4.89488 0.0933702 0)
(5.07066 0.104233 0)
(4.89809 0.117832 0)
(5.05732 0.131928 0)
(4.90011 0.149622 0)
(5.04217 0.167782 0)
(4.90014 0.19068 0)
(5.0248 0.213965 0)
(4.89719 0.243487 0)
(5.00449 0.273236 0)
(4.88997 0.31119 0)
(4.98007 0.349076 0)
(4.87673 0.397746 0)
(4.94973 0.445833 0)
(4.85503 0.508073 0)
(4.91063 0.568861 0)
(4.82135 0.648184 0)
(4.85852 0.724623 0)
(4.77058 0.825256 0)
(4.78692 0.920684 0)
(4.69515 1.04751 0)
(4.68607 1.16546 0)
(4.58408 1.32369 0)
(4.54134 1.46753 0)
(4.42168 1.66168 0)
(4.33133 1.83415 0)
(4.18635 2.06543 0)
(4.02821 2.26857 0)
(3.84886 2.52871 0)
(3.61903 2.76392 0)
(3.35903 3.02639 0)
(3.0451 3.27596 0)
(2.69053 3.52612 0)
(2.28301 3.75601 0)
(1.83381 3.96146 0)
(1.34105 4.12815 0)
(0.819342 4.24675 0)
(0.274637 4.30834 0)
(4.88141 0.0380438 0)
(5.11782 0.0386182 0)
(4.88225 0.0398599 0)
(5.11543 0.0416177 0)
(4.88462 0.0441817 0)
(5.11146 0.047229 0)
(4.88836 0.0512818 0)
(5.10603 0.0558021 0)
(4.89326 0.0616066 0)
(5.09928 0.0678722 0)
(4.89902 0.0758045 0)
(5.09138 0.0841926 0)
(4.90531 0.0947661 0)
(5.08248 0.105781 0)
(4.91173 0.119678 0)
(5.0727 0.133981 0)
(4.91782 0.152098 0)
(5.06206 0.170543 0)
(4.92301 0.194042 0)
(5.05043 0.217729 0)
(4.92663 0.248113 0)
(5.03745 0.27844 0)
(4.92776 0.317637 0)
(5.02238 0.356374 0)
(4.92511 0.406854 0)
(5.00394 0.456213 0)
(4.9168 0.521119 0)
(4.97993 0.583822 0)
(4.89995 0.667128 0)
(4.9468 0.74644 0)
(4.87008 0.853123 0)
(4.89883 0.952779 0)
(4.82026 1.08897 0)
(4.82692 1.21288 0)
(4.73977 1.3859 0)
(4.71672 1.53746 0)
(4.61232 1.75507 0)
(4.54595 1.93633 0)
(4.41377 2.20206 0)
(4.28102 2.41666 0)
(4.10776 2.70186 0)
(3.87718 2.99036 0)
(3.62569 3.29273 0)
(3.30673 3.59963 0)
(2.94713 3.89736 0)
(2.51901 4.17964 0)
(2.04064 4.42709 0)
(1.50156 4.63034 0)
(0.92272 4.77308 0)
(0.30969 4.84776 0)
(4.88168 0.0379109 0)
(5.11874 0.0384849 0)
(4.88374 0.0397221 0)
(5.1176 0.0414792 0)
(4.88741 0.0440341 0)
(5.11503 0.0470817 0)
(4.89262 0.0511204 0)
(5.11123 0.0556447 0)
(4.89926 0.0614302 0)
(5.10643 0.0677081 0)
(4.90712 0.075617 0)
(5.10094 0.0840331 0)
(4.91602 0.0945806 0)
(5.09505 0.105651 0)
(4.9257 0.119525 0)
(5.08907 0.13393 0)
(4.93591 0.152036 0)
(5.08325 0.17066 0)
(4.94635 0.194182 0)
(5.07774 0.218171 0)
(4.95664 0.248649 0)
(5.07257 0.279476 0)
(4.96628 0.318908 0)
(5.06743 0.358459 0)
(4.97449 0.409435 0)
(5.06161 0.460107 0)
(4.97998 0.525973 0)
(5.0536 0.590789 0)
(4.98058 0.675852 0)
(5.04064 0.75856 0)
(4.97262 0.868337 0)
(5.01786 0.973456 0)
(4.94984 1.11494 0)
(4.97681 1.24764 0)
(4.9019 1.42952 0)
(4.90282 1.59516 0)
(4.81224 1.82779 0)
(4.76901 2.03107 0)
(4.65667 2.32481 0)
(4.5176 2.57068 0)
(4.41061 2.92542 0)
(4.19759 3.23907 0)
(3.95561 3.58737 0)
(3.63715 3.94423 0)
(3.25845 4.30105 0)
(2.8017 4.64841 0)
(2.27512 4.96257 0)
(1.67984 5.22843 0)
(1.03223 5.41957 0)
(0.347758 5.52113 0)
(4.88197 0.037239 0)
(5.1196 0.0378033 0)
(4.88518 0.0390219 0)
(5.11965 0.0407493 0)
(4.8901 0.0432664 0)
(5.1184 0.0462628 0)
(4.89674 0.0502436 0)
(5.11612 0.0546926 0)
(4.90507 0.0603989 0)
(5.11317 0.0665738 0)
(4.91501 0.0743813 0)
(5.10994 0.0826627 0)
(4.92648 0.0930865 0)
(5.1069 0.103987 0)
(4.93942 0.117717 0)
(5.10453 0.131914 0)
(4.95378 0.149862 0)
(5.10332 0.168243 0)
(4.96953 0.191607 0)
(5.10376 0.215331 0)
(4.98666 0.245681 0)
(5.10624 0.27625 0)
(5.0051 0.31564 0)
(5.11102 0.355005 0)
(5.02464 0.406126 0)
(5.11805 0.456807 0)
(5.04476 0.523195 0)
(5.12669 0.58843 0)
(5.06422 0.674738 0)
(5.13527 0.758637 0)
(5.0805 0.871021 0)
(5.14029 0.978659 0)
(5.08873 1.12536 0)
(5.13494 1.26258 0)
(5.08004 1.45503 0)
(5.10668 1.6272 0)
(5.03914 1.8831 0)
(5.03261 2.08976 0)
(4.94213 2.4453 0)
(4.86911 2.65771 0)
(4.76221 3.01178 0)
(4.52534 3.43393 0)
(4.31615 3.83773 0)
(4.00552 4.27884 0)
(3.63663 4.71067 0)
(3.16674 5.13747 0)
(2.60856 5.51951 0)
(1.94903 5.84088 0)
(1.20932 6.07035 0)
(0.409137 6.19176 0)
(4.88224 0.0359718 0)
(5.12049 0.0365183 0)
(4.88662 0.0376957 0)
(5.12176 0.0393689 0)
(4.89281 0.0418013 0)
(5.12187 0.0447048 0)
(4.90088 0.0485524 0)
(5.12117 0.0528664 0)
(4.91089 0.0583834 0)
(5.12012 0.0643765 0)
(4.92288 0.0719283 0)
(5.11925 0.0799753 0)
(4.9369 0.0900644 0)
(5.11917 0.100672 0)
(4.95305 0.113973 0)
(5.12054 0.127813 0)
(4.97149 0.145224 0)
(5.12412 0.163183 0)
(4.99246 0.185888 0)
(5.13069 0.209128 0)
(5.01629 0.238691 0)
(5.14107 0.268736 0)
(5.04339 0.307224 0)
(5.15603 0.34607 0)
(5.07417 0.396223 0)
(5.17624 0.446491 0)
(5.10886 0.511955 0)
(5.20199 0.577084 0)
(5.14725 0.662733 0)
(5.23284 0.747217 0)
(5.18805 0.859608 0)
(5.2669 0.969251 0)
(5.22785 1.11727 0)
(5.29961 1.25931 0)
(5.25892 1.4552 0)
(5.32198 1.6378 0)
(5.26516 1.89926 0)
(5.3195 2.1282 0)
(5.21279 2.48489 0)
(5.28045 2.74865 0)
(5.11012 3.14694 0)
(4.89684 3.40397 0)
(4.70334 3.80858 0)
(4.42831 4.29126 0)
(4.07578 4.77405 0)
(3.61246 5.28203 0)
(3.0334 5.77516 0)
(2.33493 6.23365 0)
(1.53479 6.60179 0)
(0.658286 6.84315 0)
(4.8825 0.034185 0)
(5.12129 0.0347049 0)
(4.88797 0.0358263 0)
(5.12367 0.0374179 0)
(4.89533 0.0397351 0)
(5.12501 0.0424975 0)
(4.90474 0.0461641 0)
(5.12575 0.0502694 0)
(4.91634 0.0555296 0)
(5.12643 0.0612348 0)
(4.93028 0.0684401 0)
(5.1277 0.0761046 0)
(4.94675 0.0857392 0)
(5.13031 0.0958505 0)
(4.966 0.108567 0)
(5.13513 0.121775 0)
(4.98842 0.138442 0)
(5.14314 0.155609 0)
(5.01452 0.17738 0)
(5.15546 0.199647 0)
(5.04502 0.228052 0)
(5.17335 0.256928 0)
(5.08082 0.294005 0)
(5.19817 0.331496 0)
(5.12297 0.379971 0)
(5.23137 0.428758 0)
(5.17263 0.492298 0)
(5.27432 0.555978 0)
(5.23081 0.63956 0)
(5.32805 0.722989 0)
(5.29791 0.833408 0)
(5.39259 0.94317 0)
(5.37275 1.08973 0)
(5.46583 1.2348 0)
(5.45065 1.43011 0)
(5.54149 1.62294 0)
(5.51933 1.88298 0)
(5.60605 2.1422 0)
(5.54966 2.48122 0)
(5.63773 2.84297 0)
(5.60625 3.22092 0)
(5.33114 3.53289 0)
(5.18411 4.03215 0)
(4.95583 4.58972 0)
(4.62657 5.18291 0)
(4.16539 5.79825 0)
(3.54188 6.4329 0)
(2.76105 7.0303 0)
(1.83514 7.5193 0)
(0.798228 7.83486 0)
(4.88275 0.0318555 0)
(5.12209 0.0323409 0)
(4.88928 0.0333864 0)
(5.12559 0.034873 0)
(4.89778 0.0370337 0)
(5.12816 0.0396147 0)
(4.90849 0.0430345 0)
(5.13034 0.0468723 0)
(4.92163 0.0517801 0)
(5.13276 0.0571174 0)
(4.93744 0.0638435 0)
(5.13619 0.0710207 0)
(4.95624 0.0800212 0)
(5.14152 0.0895008 0)
(4.97843 0.101392 0)
(5.1498 0.113793 0)
(5.00462 0.129401 0)
(5.16225 0.145548 0)
(5.03557 0.165972 0)
(5.18031 0.186961 0)
(5.07238 0.213675 0)
(5.20565 0.240967 0)
(5.11641 0.275946 0)
(5.24021 0.311502 0)
(5.1694 0.357418 0)
(5.28623 0.403887 0)
(5.23343 0.464384 0)
(5.34618 0.525383 0)
(5.31078 0.605479 0)
(5.42265 0.685992 0)
(5.40365 0.792674 0)
(5.51788 0.89965 0)
(5.5134 1.04272 0)
(5.6329 1.18597 0)
(5.63897 1.37919 0)
(5.76541 1.57281 0)
(5.7736 1.83491 0)
(5.90528 2.10024 0)
(5.89896 2.45323 0)
(6.0223 2.82807 0)
(6.12863 3.22908 0)
(5.82296 3.62335 0)
(5.74221 4.20045 0)
(5.57916 4.85443 0)
(5.30223 5.57097 0)
(4.87123 6.29706 0)
(4.19875 7.1278 0)
(3.32427 7.93273 0)
(2.2404 8.60545 0)
(0.987756 9.04112 0)
(4.88298 0.0290601 0)
(5.12278 0.0295034 0)
(4.89045 0.0304588 0)
(5.12724 0.0318163 0)
(4.89997 0.033791 0)
(5.13089 0.0361482 0)
(4.91184 0.0392745 0)
(5.13431 0.0427804 0)
(4.92637 0.0472686 0)
(5.13824 0.0521463 0)
(4.94389 0.0583005 0)
(5.14354 0.0648634 0)
(4.96484 0.0731037 0)
(5.15124 0.0817795 0)
(4.98978 0.092675 0)
(5.16256 0.104039 0)
(5.01951 0.118353 0)
(5.17895 0.133174 0)
(5.05507 0.151929 0)
(5.20217 0.17124 0)
(5.09791 0.195808 0)
(5.23432 0.220998 0)
(5.14989 0.25323 0)
(5.27794 0.286189 0)
(5.21343 0.328605 0)
(5.33611 0.371929 0)
(5.2916 0.427996 0)
(5.41248 0.485302 0)
(5.38808 0.559846 0)
(5.51134 0.636265 0)
(5.50711 0.736084 0)
(5.63743 0.839041 0)
(5.6531 0.9738 0)
(5.79529 1.11432 0)
(5.82943 1.29777 0)
(5.98772 1.49275 0)
(6.03577 1.74413 0)
(6.21149 2.02035 0)
(6.26232 2.3654 0)
(6.44606 2.76625 0)
(6.64033 3.1613 0)
(6.3669 3.64618 0)
(6.37878 4.29532 0)
(6.31098 5.05902 0)
(6.12439 5.94917 0)
(5.74077 7.06475 0)
(5.11817 8.1641 0)
(4.12179 9.21041 0)
(2.74347 10.0884 0)
(1.04869 10.6323 0)
(4.88318 0.0258055 0)
(5.12346 0.0261998 0)
(4.89154 0.0270487 0)
(5.12885 0.0282564 0)
(4.90202 0.0300112 0)
(5.13353 0.0321088 0)
(4.91498 0.0348877 0)
(5.13817 0.0380087 0)
(4.9308 0.0419997 0)
(5.14357 0.0463444 0)
(4.94989 0.0518195 0)
(5.15069 0.0576695 0)
(4.9728 0.065006 0)
(5.16068 0.0727461 0)
(5.00023 0.0824564 0)
(5.17494 0.0926051 0)
(5.03314 0.105379 0)
(5.19513 0.118633 0)
(5.07285 0.135401 0)
(5.22327 0.152696 0)
(5.1211 0.174711 0)
(5.26187 0.197317 0)
(5.18024 0.226286 0)
(5.31401 0.255938 0)
(5.25336 0.294206 0)
(5.38355 0.33331 0)
(5.34444 0.38414 0)
(5.47529 0.43609 0)
(5.45859 0.504091 0)
(5.59521 0.573773 0)
(5.6022 0.665567 0)
(5.75065 0.760188 0)
(5.78295 0.885445 0)
(5.95012 1.01595 0)
(6.00951 1.18901 0)
(6.20246 1.37256 0)
(6.29022 1.61488 0)
(6.51361 1.87944 0)
(6.62931 2.22329 0)
(6.87721 2.61552 0)
(7.16666 3.00202 0)
(6.96107 3.57337 0)
(7.09147 4.28047 0)
(7.15648 5.14178 0)
(7.10408 6.1833 0)
(6.97977 7.57394 0)
(6.41326 8.97568 0)
(5.36787 10.4252 0)
(3.71709 11.7199 0)
(1.4909 12.5586 0)
(4.88336 0.0221701 0)
(5.124 0.0225091 0)
(4.89246 0.0232393 0)
(5.13014 0.0242777 0)
(4.90374 0.0257873 0)
(5.13566 0.0275911 0)
(4.91762 0.029982 0)
(5.14128 0.0326666 0)
(4.93453 0.0361011 0)
(5.14786 0.0398397 0)
(4.95498 0.0445528 0)
(5.15646 0.0495894 0)
(4.9796 0.0559073 0)
(5.16833 0.0625765 0)
(5.00923 0.0709423 0)
(5.185 0.0796971 0)
(5.04499 0.090709 0)
(5.20835 0.102161 0)
(5.08843 0.116625 0)
(5.24066 0.131602 0)
(5.1416 0.15061 0)
(5.28482 0.170244 0)
(5.20728 0.195287 0)
(5.34445 0.221142 0)
(5.28919 0.254277 0)
(5.42417 0.288553 0)
(5.39224 0.332664 0)
(5.52993 0.378511 0)
(5.52289 0.437708 0)
(5.66946 0.499755 0)
(5.68965 0.580017 0)
(5.85272 0.66524 0)
(5.90353 0.775475 0)
(6.09253 0.894715 0)
(6.17861 1.04857 0)
(6.40472 1.21917 0)
(6.5321 1.43829 0)
(6.80722 1.68865 0)
(6.98306 2.00918 0)
(7.31487 2.38614 0)
(7.67552 2.74024 0)
(7.58687 3.37818 0)
(7.86653 4.11811 0)
(8.11435 5.05216 0)
(8.27998 6.23078 0)
(8.47262 7.86066 0)
(8.1392 9.69877 0)
(7.1943 11.7659 0)
(5.26574 13.774 0)
(2.22765 15.1905 0)
(4.88351 0.0181853 0)
(5.12451 0.0184637 0)
(4.89327 0.019063 0)
(5.13135 0.019916 0)
(4.90527 0.021155 0)
(5.13764 0.0226369 0)
(4.91995 0.0245997 0)
(5.14416 0.0268059 0)
(4.93782 0.0296264 0)
(5.15184 0.0326997 0)
(4.95944 0.0365723 0)
(5.16181 0.0407145 0)
(4.98552 0.045909 0)
(5.17541 0.0513969 0)
(5.01699 0.0582816 0)
(5.19429 0.0654901 0)
(5.05514 0.0745633 0)
(5.2205 0.0839994 0)
(5.10168 0.0959361 0)
(5.25655 0.108288 0)
(5.15894 0.124007 0)
(5.30562 0.140217 0)
(5.23008 0.16098 0)
(5.37178 0.182357 0)
(5.31936 0.20992 0)
(5.4603 0.238316 0)
(5.43252 0.27516 0)
(5.57814 0.313248 0)
(5.57731 0.362955 0)
(5.73456 0.414703 0)
(5.76424 0.482561 0)
(5.94203 0.554039 0)
(6.00764 0.648086 0)
(6.21752 0.748909 0)
(6.3272 0.8818 0)
(6.58407 1.02773 0)
(6.74992 1.22031 0)
(7.07261 1.43807 0)
(7.31227 1.72681 0)
(7.72293 2.06273 0)
(8.15101 2.36364 0)
(8.2173 3.03813 0)
(8.67156 3.77031 0)
(9.15053 4.72923 0)
(9.61968 5.99782 0)
(10.2963 7.80385 0)
(10.4402 10.1508 0)
(10.0331 13.1531 0)
(7.96297 16.3576 0)
(3.65666 19.0444 0)
(4.88364 0.0139305 0)
(5.12486 0.0141439 0)
(4.89389 0.0146033 0)
(5.13219 0.015257 0)
(4.90641 0.0162069 0)
(5.13903 0.0173428 0)
(4.9217 0.0188477 0)
(5.1462 0.020539 0)
(4.9403 0.0227018 0)
(5.15466 0.0250585 0)
(4.96283 0.0280282 0)
(5.1656 0.0312061 0)
(4.99006 0.0351899 0)
(5.18044 0.039403 0)
(5.02303 0.0446837 0)
(5.20094 0.050223 0)
(5.06312 0.0571834 0)
(5.22927 0.0644441 0)
(5.11221 0.0736029 0)
(5.26815 0.0831245 0)
(5.17286 0.0951883 0)
(5.32103 0.107715 0)
(5.24855 0.123656 0)
(5.39237 0.14023 0)
(5.34399 0.161406 0)
(5.48805 0.183512 0)
(5.46561 0.21185 0)
(5.6159 0.241658 0)
(5.62223 0.279959 0)
(5.78657 0.320726 0)
(5.82608 0.373171 0)
(6.0148 0.429932 0)
(6.09434 0.502996 0)
(6.32137 0.583798 0)
(6.45163 0.687976 0)
(6.73619 0.806113 0)
(6.93389 0.959433 0)
(7.30316 1.13762 0)
(7.59471 1.37333 0)
(8.08816 1.65177 0)
(8.55699 1.87374 0)
(8.81051 2.53845 0)
(9.45192 3.20602 0)
(10.1951 4.11103 0)
(11.0411 5.36562 0)
(12.3976 7.16428 0)
(13.3666 9.88841 0)
(13.7412 13.919 0)
(12.3257 19.7159 0)
(7.47679 27.4172 0)
(4.88372 0.00945663 0)
(5.12517 0.00960161 0)
(4.89436 0.00991354 0)
(5.13292 0.0103577 0)
(4.90731 0.0110028 0)
(5.14022 0.0117747 0)
(4.92308 0.0127968 0)
(5.14793 0.0139464 0)
(4.94225 0.0154156 0)
(5.15706 0.0170178 0)
(4.96546 0.019036 0)
(5.16882 0.0211969 0)
(4.99354 0.0239059 0)
(5.1847 0.0267711 0)
(5.02759 0.0303646 0)
(5.20653 0.0341325 0)
(5.06906 0.0388738 0)
(5.23658 0.0438133 0)
(5.11997 0.05006 0)
(5.27768 0.0565386 0)
(5.18301 0.0647801 0)
(5.33349 0.0733047 0)
(5.26192 0.0842174 0)
(5.40874 0.0954985 0)
(5.36174 0.110031 0)
(5.50969 0.125085 0)
(5.48946 0.144593 0)
(5.64483 0.16491 0)
(5.65473 0.191375 0)
(5.82583 0.219208 0)
(5.87117 0.255615 0)
(6.06915 0.294483 0)
(6.15831 0.345498 0)
(6.39864 0.401107 0)
(6.54489 0.474377 0)
(6.84987 0.556354 0)
(7.07451 0.665186 0)
(7.47788 0.790438 0)
(7.81571 0.959708 0)
(8.37193 1.15934 0)
(8.86253 1.27936 0)
(9.31588 1.8811 0)
(10.1332 2.41495 0)
(11.1391 3.15947 0)
(12.3881 4.23284 0)
(14.5529 5.70145 0)
(16.7743 8.33672 0)
(19.3753 12.7518 0)
(21.6516 21.7611 0)
(18.5237 39.3587 0)
(4.88378 0.00479265 0)
(5.12531 0.00486612 0)
(4.89463 0.0050243 0)
(5.13326 0.00524938 0)
(4.9078 0.00557648 0)
(5.1408 0.00596765 0)
(4.92384 0.00648594 0)
(5.14877 0.00706849 0)
(4.94332 0.0078135 0)
(5.15822 0.00862555 0)
(4.96694 0.00964884 0)
(5.17038 0.0107443 0)
(4.99554 0.0121177 0)
(5.18679 0.0135709 0)
(5.03027 0.0153923 0)
(5.20931 0.0173046 0)
(5.07263 0.019707 0)
(5.24027 0.0222164 0)
(5.12472 0.0253804 0)
(5.28262 0.0286761 0)
(5.18934 0.0328486 0)
(5.34013 0.0371928 0)
(5.27037 0.0427151 0)
(5.41774 0.0484772 0)
(5.37308 0.0558281 0)
(5.52202 0.0635394 0)
(5.50477 0.0734041 0)
(5.66189 0.0838475 0)
(5.67562 0.0972321 0)
(5.84972 0.111595 0)
(5.90009 0.130025 0)
(6.10317 0.150168 0)
(6.19918 0.176054 0)
(6.44809 0.204996 0)
(6.60426 0.242353 0)
(6.9238 0.285181 0)
(7.16404 0.341132 0)
(7.59276 0.40681 0)
(7.95741 0.494844 0)
(8.55958 0.600121 0)
(9.03859 0.598224 0)
(9.68094 1.08442 0)
(10.6335 1.41636 0)
(11.8504 1.88659 0)
(13.441 2.58105 0)
(16.3117 3.32267 0)
(19.7941 5.1248 0)
(25.0126 8.37061 0)
(32.0449 13.8019 0)
(48.4395 25.1685 0)
(4.88379 5.34398e-10 0)
(5.1254 5.33666e-10 0)
(4.89474 5.31678e-10 0)
(5.13346 5.27761e-10 0)
(4.90802 5.22871e-10 0)
(5.14113 5.1719e-10 0)
(4.92417 5.10998e-10 0)
(5.14925 5.03362e-10 0)
(4.94379 4.96605e-10 0)
(5.15888 4.8885e-10 0)
(4.96756 4.81766e-10 0)
(5.17127 4.72942e-10 0)
(4.99635 4.6686e-10 0)
(5.18795 4.58321e-10 0)
(5.03129 4.51825e-10 0)
(5.21082 4.44263e-10 0)
(5.07394 4.37741e-10 0)
(5.24221 4.3036e-10 0)
(5.12638 4.23774e-10 0)
(5.2851 4.16016e-10 0)
(5.19146 4.09932e-10 0)
(5.34329 4.02546e-10 0)
(5.27311 3.9612e-10 0)
(5.42176 3.89196e-10 0)
(5.37669 3.82557e-10 0)
(5.52714 3.75997e-10 0)
(5.50961 3.66797e-10 0)
(5.66848 3.62385e-10 0)
(5.68226 3.51839e-10 0)
(5.85837 3.48195e-10 0)
(5.90944 3.35219e-10 0)
(6.11482 3.33711e-10 0)
(6.2127 3.16187e-10 0)
(6.46442 3.18244e-10 0)
(6.62445 2.94456e-10 0)
(6.94787 3.00076e-10 0)
(7.1952 2.66083e-10 0)
(7.63039 2.78835e-10 0)
(8.00753 2.27432e-10 0)
(8.62231 2.46707e-10 0)
(9.05875 -0.127651 0)
(9.86013 0.187673 0)
(10.8772 0.265465 0)
(12.1985 0.37229 0)
(13.9644 0.527873 0)
(17.13 0.260997 0)
(21.2285 0.54188 0)
(27.7611 0.995631 0)
(37.0769 0.336513 0)
(55.0932 0.260026 0)
(4.88378 -0.00479265 0)
(5.12531 -0.00486612 0)
(4.89463 -0.0050243 0)
(5.13326 -0.00524938 0)
(4.9078 -0.00557648 0)
(5.1408 -0.00596765 0)
(4.92384 -0.00648593 0)
(5.14877 -0.00706849 0)
(4.94332 -0.0078135 0)
(5.15822 -0.00862555 0)
(4.96694 -0.00964884 0)
(5.17038 -0.0107443 0)
(4.99554 -0.0121177 0)
(5.18679 -0.0135709 0)
(5.03027 -0.0153923 0)
(5.20931 -0.0173046 0)
(5.07263 -0.019707 0)
(5.24027 -0.0222164 0)
(5.12472 -0.0253804 0)
(5.28262 -0.0286761 0)
(5.18934 -0.0328486 0)
(5.34013 -0.0371928 0)
(5.27037 -0.0427151 0)
(5.41774 -0.0484772 0)
(5.37308 -0.0558281 0)
(5.52202 -0.0635394 0)
(5.50477 -0.0734041 0)
(5.66189 -0.0838475 0)
(5.67562 -0.0972321 0)
(5.84972 -0.111595 0)
(5.90009 -0.130025 0)
(6.10317 -0.150168 0)
(6.19918 -0.176054 0)
(6.44809 -0.204996 0)
(6.60426 -0.242353 0)
(6.9238 -0.285181 0)
(7.16404 -0.341132 0)
(7.59276 -0.40681 0)
(7.95741 -0.494844 0)
(8.55958 -0.600121 0)
(8.92017 -0.841104 0)
(9.82145 -0.727655 0)
(10.8138 -0.915046 0)
(12.0979 -1.19102 0)
(13.8029 -1.61084 0)
(16.6884 -2.8613 0)
(20.3924 -4.20075 0)
(26.1191 -6.75238 0)
(33.924 -13.1467 0)
(52.106 -24.5848 0)
(4.88372 -0.00945663 0)
(5.12517 -0.0096016 0)
(4.89436 -0.00991354 0)
(5.13292 -0.0103577 0)
(4.90731 -0.0110028 0)
(5.14022 -0.0117747 0)
(4.92308 -0.0127968 0)
(5.14793 -0.0139464 0)
(4.94225 -0.0154156 0)
(5.15706 -0.0170178 0)
(4.96546 -0.019036 0)
(5.16882 -0.0211969 0)
(4.99354 -0.0239059 0)
(5.1847 -0.0267711 0)
(5.02759 -0.0303646 0)
(5.20653 -0.0341325 0)
(5.06906 -0.0388737 0)
(5.23658 -0.0438133 0)
(5.11997 -0.05006 0)
(5.27768 -0.0565386 0)
(5.18301 -0.0647801 0)
(5.33349 -0.0733047 0)
(5.26192 -0.0842174 0)
(5.40874 -0.0954985 0)
(5.36174 -0.110031 0)
(5.50969 -0.125085 0)
(5.48946 -0.144593 0)
(5.64483 -0.16491 0)
(5.65473 -0.191375 0)
(5.82583 -0.219208 0)