/*--------------------------------*- C++ -*----------------------------------*\
| =========                 |                                                 |
| \\      /  F ield         | foam-extend: Open Source CFD                    |
|  \\    /   O peration     | Version:     4.0                                |
|   \\  /    A nd           | Web:         http://www.foam-extend.org         |
|    \\/     M anipulation  |                                                 |
\*---------------------------------------------------------------------------*/
FoamFile
{
    version     2.0;
    format      ascii;
    class       regIOobject;
    location    "0.0014/uniform";
    object      profilingInfo;
}
// * * * * * * * * * * * * * * * * * * * * * * * * * * * * * * * * * * * * * //

profilingInfo
(

    {
        id              18;
        parentId        16;
        description     "Foam::Time::writeObject - outputTime";
        calls           2;
        totalTime       0.290929;
        childTime       0;
        onStack         1;
    }

    {
        id              16;
        parentId        1;
        description     "Foam::Time::writeObject";
        calls           53;
        totalTime       0.29122;
        childTime       0.290929;
        onStack         1;
    }

    {
        id              1;
        description     "application::main";
        calls           1;
        totalTime       6.89018;
        childTime       2.97307;
        onStack         1;
    }

    {
        id              6;
        parentId        5;
        description     "functionObjectList::read";
        calls           1;
        totalTime       2e-06;
        childTime       0;
        onStack         0;
    }

    {
        id              17;
        parentId        1;
        description     "functionObjects_.execute()";
        calls           52;
        totalTime       0.00016;
        childTime       0;
        onStack         0;
    }

    {
        id              5;
        parentId        1;
        description     "functionObjects_.start()";
        calls           1;
        totalTime       6e-06;
        childTime       2e-06;
        onStack         0;
    }

    {
        id              7;
        parentId        1;
        description     "fvMatrix::solve_alpha1";
        calls           53;
        totalTime       0.079736;
        childTime       0.065975;
        onStack         0;
    }

    {
        id              14;
        parentId        1;
        description     "fvMatrix::solve_k";
        calls           53;
        totalTime       0.39545;
        childTime       0.382316;
        onStack         0;
    }

    {
        id              12;
        parentId        1;
        description     "fvMatrix::solve_omega";
        calls           53;
        totalTime       0.309935;
        childTime       0.280955;
        onStack         0;
    }

    {
        id              2;
        parentId        1;
        description     "fvMatrix::solve_pcorr";
        calls           1;
        totalTime       0.104332;
        childTime       0.104079;
        onStack         0;
    }

    {
        id              9;
        parentId        1;
        description     "fvMatrix::solve_pd";
        calls           53;
        totalTime       1.79223;
        childTime       1.78081;
        onStack         0;
    }

    {
        id              8;
        parentId        7;
        description     "lduMatrix::solver_alpha1";
        calls           53;
        totalTime       0.065975;
        childTime       0;
        onStack         0;
    }

    {
        id              4;
        parentId        3;
        description     "lduMatrix::solver_coarsestLevelCorr";
        calls           20;
        totalTime       0.006224;
        childTime       0;
        onStack         0;
    }

    {
        id              11;
        parentId        10;
        description     "lduMatrix::solver_coarsestLevelCorr";
        calls           317;
        totalTime       0.103473;
        childTime       0;
        onStack         0;
    }

    {
        id              15;
        parentId        14;
        description     "lduMatrix::solver_k";
        calls           53;
        totalTime       0.382316;
        childTime       0;
        onStack         0;
    }

    {
        id              13;
        parentId        12;
        description     "lduMatrix::solver_omega";
        calls           53;
        totalTime       0.280955;
        childTime       0;
        onStack         0;
    }

    {
        id              3;
        parentId        2;
        description     "lduMatrix::solver_pcorr";
        calls           1;
        totalTime       0.104079;
        childTime       0.006224;
        onStack         0;
    }

    {
        id              10;
        parentId        9;
        description     "lduMatrix::solver_pd";
        calls           53;
        totalTime       1.78081;
        childTime       0.103473;
        onStack         0;
    }
);


// ************************************************************************* //
