/*--------------------------------*- C++ -*----------------------------------*\
| =========                 |                                                 |
| \\      /  F ield         | foam-extend: Open Source CFD                    |
|  \\    /   O peration     | Version:     4.0                                |
|   \\  /    A nd           | Web:         http://www.foam-extend.org         |
|    \\/     M anipulation  |                                                 |
\*---------------------------------------------------------------------------*/
FoamFile
{
    version     2.0;
    format      ascii;
    class       regIOobject;
    location    "0.0011/uniform";
    object      profilingInfo;
}
// * * * * * * * * * * * * * * * * * * * * * * * * * * * * * * * * * * * * * //

profilingInfo
(

    {
        id              17;
        parentId        15;
        description     "Foam::Time::writeObject - outputTime";
        calls           11;
        totalTime       1.57147;
        childTime       0;
        onStack         1;
    }

    {
        id              15;
        parentId        1;
        description     "Foam::Time::writeObject";
        calls           98;
        totalTime       1.57192;
        childTime       1.57147;
        onStack         1;
    }

    {
        id              1;
        description     "application::main";
        calls           1;
        totalTime       14.023;
        childTime       7.10052;
        onStack         1;
    }

    {
        id              5;
        parentId        4;
        description     "functionObjectList::read";
        calls           1;
        totalTime       2e-06;
        childTime       0;
        onStack         0;
    }

    {
        id              16;
        parentId        1;
        description     "functionObjects_.execute()";
        calls           97;
        totalTime       0.000311;
        childTime       0;
        onStack         0;
    }

    {
        id              4;
        parentId        1;
        description     "functionObjects_.start()";
        calls           1;
        totalTime       8e-06;
        childTime       2e-06;
        onStack         0;
    }

    {
        id              6;
        parentId        1;
        description     "fvMatrix::solve_alpha1";
        calls           98;
        totalTime       0.159679;
        childTime       0.130639;
        onStack         0;
    }

    {
        id              13;
        parentId        1;
        description     "fvMatrix::solve_k";
        calls           98;
        totalTime       0.807706;
        childTime       0.781941;
        onStack         0;
    }

    {
        id              11;
        parentId        1;
        description     "fvMatrix::solve_omega";
        calls           98;
        totalTime       0.809317;
        childTime       0.754997;
        onStack         0;
    }

    {
        id              2;
        parentId        1;
        description     "fvMatrix::solve_pcorr";
        calls           1;
        totalTime       0.006152;
        childTime       0.005833;
        onStack         0;
    }

    {
        id              8;
        parentId        1;
        description     "fvMatrix::solve_pd";
        calls           98;
        totalTime       3.74543;
        childTime       3.72479;
        onStack         0;
    }

    {
        id              7;
        parentId        6;
        description     "lduMatrix::solver_alpha1";
        calls           98;
        totalTime       0.130639;
        childTime       0;
        onStack         0;
    }

    {
        id              10;
        parentId        9;
        description     "lduMatrix::solver_coarsestLevelCorr";
        calls           686;
        totalTime       0.221348;
        childTime       0;
        onStack         0;
    }

    {
        id              14;
        parentId        13;
        description     "lduMatrix::solver_k";
        calls           98;
        totalTime       0.781941;
        childTime       0;
        onStack         0;
    }

    {
        id              12;
        parentId        11;
        description     "lduMatrix::solver_omega";
        calls           98;
        totalTime       0.754997;
        childTime       0;
        onStack         0;
    }

    {
        id              3;
        parentId        2;
        description     "lduMatrix::solver_pcorr";
        calls           1;
        totalTime       0.005833;
        childTime       0;
        onStack         0;
    }

    {
        id              9;
        parentId        8;
        description     "lduMatrix::solver_pd";
        calls           98;
        totalTime       3.72479;
        childTime       0.221348;
        onStack         0;
    }
);


// ************************************************************************* //
