/*--------------------------------*- C++ -*----------------------------------*\
| =========                 |                                                 |
| \\      /  F ield         | foam-extend: Open Source CFD                    |
|  \\    /   O peration     | Version:     4.0                                |
|   \\  /    A nd           | Web:         http://www.foam-extend.org         |
|    \\/     M anipulation  |                                                 |
\*---------------------------------------------------------------------------*/
FoamFile
{
    version     2.0;
    format      ascii;
    class       volScalarField;
    location    "0.0004";
    object      k;
}
// * * * * * * * * * * * * * * * * * * * * * * * * * * * * * * * * * * * * * //

dimensions      [0 2 -2 0 0 0 0];

internalField   nonuniform List<scalar> 
28770
(
4.84717e-06
1.17669e-05
1.75889e-05
2.29337e-05
2.7508e-05
3.15803e-05
3.50704e-05
3.80315e-05
4.04977e-05
4.25148e-05
4.41343e-05
4.54094e-05
4.63934e-05
4.71374e-05
4.76881e-05
4.80865e-05
4.83676e-05
4.85605e-05
4.86878e-05
4.8767e-05
4.88101e-05
4.88247e-05
4.88139e-05
4.87766e-05
4.87073e-05
4.85965e-05
4.84291e-05
4.81847e-05
4.78363e-05
4.73507e-05
4.66883e-05
4.5804e-05
4.46491e-05
4.31747e-05
4.13357e-05
3.90965e-05
3.64378e-05
3.3363e-05
2.99046e-05
2.6129e-05
2.21379e-05
1.80659e-05
1.40733e-05
1.03335e-05
7.0169e-06
4.2718e-06
2.20458e-06
8.58666e-07
1.89088e-07
1.42501e-08
0.00014663
0.000351179
0.000523163
0.000681254
0.00081708
0.000937508
0.00104093
0.00112864
0.00120168
0.00126143
0.00130939
0.00134717
0.00137632
0.00139837
0.00141468
0.00142649
0.00143483
0.00144055
0.00144433
0.00144668
0.00144797
0.0014484
0.00144808
0.00144697
0.00144491
0.00144161
0.00143663
0.00142936
0.00141899
0.00140455
0.00138484
0.00135853
0.00132418
0.00128032
0.00122563
0.00115905
0.00108001
0.000988608
0.000885832
0.000773657
0.000655113
0.000534209
0.000415712
0.000304778
0.000206469
0.000125184
6.40779e-05
2.44396e-05
4.95506e-06
2.0818e-07
0.000967393
0.00241878
0.00359864
0.00466971
0.00559642
0.00641244
0.00711465
0.00770994
0.00820569
0.00861111
0.00893661
0.00919297
0.00939089
0.00954059
0.00965145
0.00973172
0.00978844
0.0098274
0.00985317
0.00986922
0.00987798
0.00988095
0.00987875
0.00987114
0.00985699
0.00983432
0.00980008
0.00975003
0.00967871
0.0095793
0.00944369
0.00926267
0.00902633
0.0087247
0.00834862
0.00789093
0.00734779
0.00672005
0.00601454
0.00524503
0.00443249
0.00360461
0.00279427
0.00203697
0.00136752
0.000816207
0.000405114
0.000144446
2.54815e-05
9.47813e-07
0.0031709
0.00834489
0.0125136
0.0162092
0.0194068
0.022203
0.0246079
0.0266455
0.0283419
0.029729
0.0308423
0.0317192
0.0323962
0.0329085
0.0332879
0.0335628
0.0337572
0.0338908
0.0339793
0.0340345
0.0340647
0.0340749
0.0340671
0.0340406
0.0339913
0.0339123
0.0337928
0.0336182
0.0333692
0.033022
0.0325484
0.0319161
0.0310907
0.0300375
0.0287246
0.0271274
0.0252327
0.0230442
0.0205862
0.0179074
0.0150821
0.0122077
0.00940022
0.00678491
0.0044853
0.00261048
0.00124214
0.0004144
6.77319e-05
2.42537e-06
0.00732893
0.0200555
0.0304648
0.0395206
0.0473134
0.0540732
0.0598687
0.0647697
0.0688469
0.0721787
0.0748519
0.0769567
0.078582
0.0798117
0.0807229
0.0813832
0.0818504
0.0821718
0.0823848
0.0825177
0.0825903
0.0826146
0.0825952
0.0825299
0.0824087
0.0822144
0.0819205
0.0814906
0.0808774
0.0800222
0.0788553
0.0772976
0.0752641
0.0726696
0.0694365
0.0655047
0.0608431
0.0554619
0.0494231
0.0428495
0.0359267
0.0288997
0.02206
0.0157244
0.0102071
0.00578489
0.00265215
0.000846005
0.000133225
4.69181e-06
0.0138278
0.038819
0.0597512
0.0778065
0.093251
0.106537
0.11787
0.127422
0.135353
0.141827
0.147016
0.1511
0.154253
0.156638
0.158406
0.159687
0.160594
0.161218
0.161632
0.16189
0.16203
0.162077
0.162037
0.161906
0.161664
0.161277
0.16069
0.159831
0.158606
0.156896
0.154563
0.151448
0.147383
0.142197
0.135736
0.127884
0.11858
0.107849
0.095821
0.0827477
0.0690113
0.055116
0.0416627
0.0293049
0.0186856
0.0103483
0.00461392
0.00143111
0.000220938
7.71227e-06
0.0228347
0.0651128
0.101367
0.132629
0.159276
0.182035
0.201337
0.217533
0.230939
0.241861
0.250605
0.257479
0.262782
0.266793
0.269764
0.271918
0.273443
0.274492
0.275188
0.275622
0.275857
0.275932
0.275861
0.275633
0.275213
0.27454
0.273521
0.272029
0.2699
0.266928
0.26287
0.257454
0.250385
0.241371
0.230148
0.216515
0.200377
0.181785
0.160979
0.138414
0.114778
0.0909799
0.0680988
0.0472967
0.029686
0.0161428
0.00705677
0.00214992
0.000327915
1.13855e-05
0.0342802
0.0986045
0.154893
0.203643
0.245171
0.280458
0.310227
0.335087
0.355585
0.372238
0.385546
0.395991
0.404041
0.410124
0.414629
0.417893
0.420203
0.421793
0.422847
0.423503
0.423857
0.423966
0.423849
0.423489
0.422829
0.421773
0.420174
0.417832
0.414486
0.409816
0.40344
0.394929
0.383823
0.369667
0.352054
0.33068
0.30541
0.276344
0.243882
0.208773
0.172137
0.135452
0.100459
0.0689918
0.0427343
0.0229187
0.00988225
0.00297486
0.00044985
1.55507e-05
0.0478876
0.138266
0.218652
0.288712
0.348504
0.399161
0.441717
0.477099
0.506153
0.529679
0.548431
0.563122
0.574426
0.582959
0.589272
0.593844
0.597077
0.599302
0.600775
0.60169
0.60218
0.602324
0.602146
0.601619
0.600659
0.599125
0.596802
0.593399
0.588536
0.581747
0.572477
0.560105
0.543967
0.523412
0.49786
0.46689
0.430335
0.388373
0.341627
0.291227
0.23885
0.186696
0.137346
0.0934357
0.0572456
0.0303801
0.0129757
0.00387527
0.000582346
2.00345e-05
0.0632198
0.182534
0.289982
0.384258
0.465012
0.533357
0.5906
0.638022
0.676813
0.708113
0.73299
0.752435
0.767367
0.778622
0.78694
0.792957
0.797209
0.800131
0.802063
0.80326
0.803896
0.804071
0.803816
0.80309
0.801779
0.799684
0.796514
0.791867
0.785227
0.775954
0.763296
0.746405
0.724386
0.696363
0.66157
0.619468
0.569873
0.513085
0.450004
0.382215
0.312033
0.242487
0.177154
0.119615
0.072628
0.0382208
0.0162108
0.00481728
0.000721648
2.47697e-05
0.0797267
0.229514
0.365597
0.48582
0.589258
0.676831
0.750043
0.810536
0.859862
0.899528
0.930961
0.955469
0.974248
0.988377
0.998801
1.00633
1.01165
1.0153
1.01771
1.01919
1.01997
1.02017
1.01983
1.01888
1.01717
1.01446
1.01035
1.00432
0.995714
0.98369
0.967279
0.94539
0.916876
0.880624
0.835681
0.781401
0.717618
0.644799
0.564177
0.477828
0.388694
0.300604
0.218273
0.146569
0.0883836
0.046199
0.0194748
0.00576087
0.000860977
2.95824e-05
0.0967947
0.277205
0.442171
0.588832
0.715465
0.822897
0.912646
0.986668
1.04689
1.09517
1.13333
1.163
1.18569
1.20272
1.21527
1.22432
1.2307
1.23507
1.23795
1.23972
1.24064
1.24085
1.2404
1.23921
1.23709
1.23372
1.22862
1.22114
1.21046
1.19554
1.17517
1.14803
1.11269
1.06782
1.01229
0.94537
0.86696
0.777757
0.679388
0.574427
0.466308
0.359326
0.259277
0.173374
0.10412
0.0542395
0.0227723
0.00670466
0.000995564
3.37783e-05
0.113799
0.323792
0.516731
0.68885
0.838136
0.965229
1.07139
1.15883
1.22985
1.28667
1.33146
1.36622
1.39273
1.41259
1.4272
1.43771
1.44511
1.45017
1.4535
1.45553
1.45658
1.4568
1.45624
1.4548
1.45226
1.44822
1.44212
1.43319
1.42041
1.40257
1.37823
1.3458
1.30362
1.25012
1.18402
1.10457
1.01179
0.906696
0.791415
0.669061
0.543341
0.4181
0.299368
0.199134
0.119286
0.0622461
0.0261979
0.00773593
0.00115663
3.96142e-05
0.130139
0.367691
0.586589
0.782408
0.953075
1.09864
1.2204
1.32063
1.40196
1.46694
1.51805
1.55763
1.58776
1.61029
1.62683
1.63872
1.64707
1.65277
1.6565
1.65878
1.65993
1.66015
1.65947
1.65779
1.65484
1.65016
1.6431
1.63274
1.61795
1.59729
1.56911
1.53157
1.48279
1.42098
1.34473
1.2533
1.14695
1.02716
0.896758
0.759609
0.619607
0.478135
0.339482
0.224167
0.133762
0.0700534
0.0295858
0.00872339
0.00129724
4.36584e-05
0.145307
0.407742
0.649986
0.867299
1.05699
1.21923
1.35539
1.46742
1.55825
1.63076
1.6877
1.73172
1.76518
1.79016
1.80846
1.8216
1.8308
1.83708
1.84117
1.84366
1.8449
1.84511
1.84432
1.84241
1.83907
1.83379
1.82582
1.81415
1.79748
1.77419
1.74243
1.70014
1.64518
1.57561
1.48989
1.38734
1.2685
1.13558
0.992543
0.844677
0.696677
0.539924
0.380294
0.250924
0.150643
0.0803435
0.0345592
0.0103153
0.00155131
4.92074e-05
0.158916
0.443164
0.705765
0.941827
1.14804
1.32504
1.47385
1.59638
1.69567
1.77489
1.83706
1.88505
1.92148
1.94864
1.96851
1.98274
1.99271
1.99948
2.00389
2.00655
2.00786
2.00805
2.00715
2.00503
2.00134
1.99552
1.98674
1.97389
1.95552
1.92987
1.89488
1.84828
1.78774
1.71111
1.61675
1.50397
1.37365
1.22892
1.07561
0.922513
0.833616
0.625981
0.440218
0.291988
0.18413
0.103425
0.0486717
0.0166782
0.00320589
0.000151454
0.170732
0.473582
0.753449
1.00541
1.22583
1.41514
1.57461
1.70627
1.81291
1.89796
1.96466
2.0161
2.0551
2.08415
2.10537
2.12056
2.13117
2.13837
2.14305
2.14585
2.14722
2.14738
2.14638
2.14407
2.14007
2.13377
2.12429
2.1104
2.09055
2.06284
2.02502
1.97464
1.90917
1.8263
1.7242
1.60211
1.46094
1.30437
1.13985
0.976224
0.849293
0.638798
0.433005
0.285239
0.182053
0.105361
0.0499171
0.0171556
0.00329662
0.000127522
0.180664
0.498945
0.793066
1.05815
1.29039
1.4897
1.658
1.79729
1.9101
2.00005
2.07057
2.12493
2.16611
2.19675
2.21912
2.2351
2.24626
2.25382
2.25871
2.26163
2.26304
2.26317
2.26208
2.25959
2.25533
2.24862
2.23854
2.22378
2.20268
2.17321
2.13298
2.07939
2.00971
1.92147
1.81268
1.68238
1.53108
1.36185
1.18185
0.998849
0.849391
0.618277
0.409144
0.269052
0.175533
0.102343
0.0479314
0.0165002
0.00318323
0.000121808
0.188749
0.51948
0.825056
1.10068
1.34244
1.54986
1.72522
1.87058
1.98843
2.08237
2.15603
2.21278
2.25575
2.28771
2.31102
2.32766
2.33926
2.34711
2.35218
2.35519
2.35662
2.35672
2.35554
2.35291
2.34842
2.34138
2.3308
2.31532
2.29319
2.26228
2.22008
2.16383
2.09067
1.99796
1.88364
1.74667
1.58744
1.40839
1.2161
1.02031
0.863781
0.614987
0.406486
0.270912
0.179015
0.0930948
0.0411214
0.0143841
0.00258014
8.69076e-05
0.195116
0.535596
0.850115
1.13398
1.3832
1.5971
1.77781
1.92782
2.04971
2.14684
2.22299
2.28165
2.32606
2.35907
2.38314
2.40031
2.41227
2.42034
2.42555
2.42862
2.43007
2.43014
2.42888
2.42613
2.42145
2.41414
2.40315
2.3871
2.36416
2.3321
2.28833
2.22997
2.15404
2.05777
1.93898
1.79662
1.63124
1.44531
1.24521
1.0437
0.890221
0.635235
0.427078
0.289449
0.190402
0.0976943
0.0449621
0.0158989
0.00297615
0.000115331
0.19995
0.547809
0.869089
1.15919
1.41409
1.63297
1.81763
1.97115
2.09612
2.1957
2.27379
2.33393
2.37946
2.41329
2.43795
2.45553
2.46777
2.47603
2.48134
2.48446
2.48591
2.48595
2.48463
2.48177
2.47694
2.46941
2.45812
2.44162
2.41804
2.38511
2.34014
2.28017
2.20216
2.10325
1.98118
1.83488
1.66515
1.47488
1.27052
1.06622
0.910724
0.660323
0.449426
0.306238
0.200543
0.100684
0.0466282
0.0162084
0.0031701
0.000131352
0.203461
0.556672
0.882854
1.17748
1.43655
1.6591
1.84665
2.00269
2.1299
2.2313
2.31082
2.37207
2.41844
2.4529
2.47801
2.49592
2.50837
2.51676
2.52215
2.52531
2.52676
2.52677
2.5254
2.52246
2.51751
2.5098
2.49827
2.48144
2.4574
2.42381
2.37796
2.31681
2.23728
2.13647
2.0121
1.86307
1.69029
1.49708
1.28988
1.08267
0.922931
0.674111
0.459984
0.313805
0.205283
0.103423
0.0490438
0.017384
0.00350987
0.000126846
0.20586
0.562719
0.892239
1.18997
1.45191
1.67704
1.86664
2.02438
2.15312
2.2558
2.33634
2.3984
2.44538
2.4803
2.50574
2.52389
2.5365
2.545
2.55045
2.55364
2.55508
2.55507
2.55366
2.55065
2.5456
2.53778
2.52607
2.509
2.48462
2.45058
2.40411
2.34215
2.26157
2.15946
2.03357
1.88279
1.70803
1.51282
1.30361
1.09395
0.930233
0.680079
0.463629
0.316267
0.207387
0.106977
0.0507963
0.0184671
0.00351025
0.000230653
0.207335
0.566436
0.898009
1.19764
1.46139
1.68818
1.87911
2.03784
2.16752
2.27106
2.35228
2.41488
2.46229
2.49753
2.52322
2.54153
2.55427
2.56284
2.56834
2.57155
2.573
2.57297
2.57152
2.56846
2.56335
2.55544
2.54361
2.52637
2.50177
2.46743
2.42055
2.35807
2.27682
2.17391
2.04707
1.89524
1.7193
1.52285
1.31236
1.10139
0.93728
0.685475
0.467799
0.318984
0.210306
0.109393
0.0533087
0.0198948
0.00405108
0.000274778
0.208056
0.568294
0.900978
1.20166
1.46642
1.69418
1.88592
2.04514
2.1753
2.27937
2.361
2.42394
2.47162
2.50706
2.5329
2.55133
2.56414
2.57277
2.5783
2.58153
2.58298
2.58294
2.58147
2.57839
2.57324
2.56527
2.55338
2.53605
2.51132
2.47681
2.42972
2.36696
2.28537
2.18204
2.05473
1.9024
1.72595
1.52901
1.31817
1.10728
0.943312
0.692432
0.474061
0.323433
0.213099
0.110015
0.054818
0.0216655
0.0065173
0.000665445
0.208183
0.568668
0.901662
1.20269
1.46779
1.69592
1.88798
2.04731
2.17761
2.2819
2.36373
2.42682
2.47461
2.51015
2.53606
2.55455
2.56741
2.57607
2.58162
2.58485
2.58631
2.58627
2.5848
2.58171
2.57656
2.56859
2.55668
2.53933
2.51458
2.48004
2.43289
2.37005
2.28835
2.18489
2.05741
1.90491
1.72828
1.53117
1.32022
1.10925
0.944427
0.696972
0.478375
0.326485
0.214678
0.111703
0.0554921
0.0226021
0.0074119
0.00123693
0.207885
0.567938
0.900593
1.20135
1.46621
1.69414
1.886
2.04523
2.17542
2.2796
2.36136
2.42441
2.47218
2.5077
2.5336
2.55208
2.56494
2.5736
2.57916
2.5824
2.58386
2.58384
2.58239
2.57933
2.57421
2.56629
2.55444
2.53716
2.5125
2.47805
2.43101
2.36829
2.28673
2.18339
2.05604
1.90366
1.72713
1.53009
1.31915
1.10775
0.941275
0.695619
0.476781
0.325425
0.213851
0.110947
0.0547418
0.0218841
0.00663851
0.000755622
0.207054
0.565838
0.89732
1.19702
1.46089
1.68792
1.87902
2.03775
2.16752
2.27126
2.35269
2.41549
2.46308
2.49847
2.52427
2.5427
2.55552
2.56416
2.5697
2.57295
2.57444
2.57444
2.57303
2.57003
2.56498
2.55714
2.54541
2.52827
2.50378
2.46955
2.42277
2.36035
2.27913
2.17619
2.04925
1.8973
1.72118
1.52447
1.31372
1.10215
0.933216
0.688934
0.470843
0.320909
0.210673
0.108813
0.0529074
0.020188
0.00538832
0.000289365
0.205572
0.562077
0.891438
1.18916
1.45118
1.67653
1.86624
2.02395
2.15282
2.25576
2.33656
2.39888
2.4461
2.48123
2.50685
2.52515
2.5379
2.54649
2.55203
2.55528
2.55679
2.55683
2.55548
2.55255
2.5476
2.53989
2.52832
2.5114
2.48719
2.45329
2.40693
2.34504
2.26444
2.16223
2.03614
1.88512
1.70999
1.51428
1.30453
1.09398
0.927267
0.681985
0.464869
0.316546
0.207145
0.105823
0.0509066
0.0186324
0.0046784
0.000238552
0.20316
0.55599
0.881961
1.17653
1.43564
1.65836
1.84594
2.00193
2.1293
2.23098
2.31079
2.37235
2.419
2.45372
2.47906
2.49717
2.50979
2.51832
2.52383
2.52708
2.52861
2.52871
2.52743
2.52459
2.51977
2.51222
2.50087
2.48422
2.46037
2.42695
2.38121
2.32008
2.24044
2.13939
2.01468
1.86526
1.69192
1.49816
1.29054
1.08289
0.916558
0.676998
0.461673
0.31438
0.204769
0.102489
0.0490573
0.0175051
0.00363174
0.000135445
0.199736
0.547313
0.868412
1.15845
1.41338
1.63233
1.8169
1.97032
2.09544
2.19531
2.27369
2.33415
2.37999
2.41412
2.43904
2.45687
2.46931
2.47774
2.4832
2.48645
2.488
2.48815
2.48696
2.48424
2.47957
2.47223
2.46115
2.44487
2.42151
2.38874
2.34384
2.2838
2.20554
2.10621
1.98358
1.83661
1.66607
1.47539
1.27102
1.06683
0.904681
0.669074
0.456699
0.310977
0.202092
0.0992642
0.046695
0.016196
0.00294471
0.000121613
0.195089
0.535529
0.849995
1.13384
1.38308
1.59694
1.7774
1.92726
2.04925
2.14662
2.22304
2.28201
2.32673
2.36005
2.3844
2.40183
2.41403
2.4223
2.42768
2.43091
2.4325
2.43271
2.4316
2.42902
2.42454
2.41745
2.40672
2.39091
2.36819
2.33628
2.29251
2.23395
2.1576
2.06066
1.94097
1.7975
1.63101
1.44475
1.24474
1.04443
0.874448
0.649584
0.440986
0.299693
0.195424
0.0970249
0.0447945
0.0161899
0.00288116
0.000110757
0.189027
0.520129
0.825888
1.10159
1.34335
1.55057
1.72554
1.87067
1.98856
2.08264
2.15649
2.21349
2.25674
2.28899
2.31258
2.3295
2.34136
2.34943
2.3547
2.35788
2.35948
2.35975
2.35875
2.35632
2.35206
2.34529
2.33498
2.31977
2.29786
2.26704
2.22476
2.16815
2.09432
2.00058
1.88485
1.74621
1.5854
1.40554
1.21187
1.01557
0.853077
0.622652
0.414597
0.278771
0.183812
0.0935178
0.0411062
0.0145912
0.00262783
8.15052e-05
0.181365
0.500601
0.795262
1.06057
1.2928
1.49173
1.65948
1.79846
1.91118
2.00111
2.0717
2.12621
2.1676
2.19849
2.22112
2.23738
2.24879
2.25658
2.2617
2.26482
2.26641
2.26674
2.26586
2.2636
2.2596
2.25319
2.2434
2.22891
2.20801
2.17858
2.13817
2.08404
2.01342
1.92377
1.81315
1.68075
1.52749
1.35666
1.17371
0.989428
0.836477
0.607187
0.399299
0.263192
0.172543
0.100407
0.045405
0.015754
0.00310548
0.000118422
0.171958
0.476509
0.757381
1.00976
1.23013
1.41891
1.57767
1.70888
1.81524
1.90008
1.96668
2.01814
2.05725
2.08648
2.10792
2.12335
2.13421
2.14164
2.14655
2.14957
2.15115
2.15152
2.15076
2.1487
2.14499
2.139
2.12983
2.11622
2.09654
2.0688
2.03067
1.97959
1.91294
1.82834
1.72403
1.59936
1.45545
1.29614
1.1281
0.964398
0.846058
0.623354
0.412785
0.271293
0.174607
0.101981
0.0482962
0.0163966
0.00308743
0.000115627
0.160737
0.447555
0.711714
0.948409
1.15452
1.33084
1.47885
1.60074
1.69949
1.77827
1.84014
1.88798
1.92439
1.95162
1.97164
1.98608
1.99626
2.00326
2.0079
2.01079
2.01232
2.01274
2.01209
2.01024
2.00686
2.00136
1.9929
1.98031
1.96208
1.93634
1.90094
1.85349
1.79157
1.71297
1.6161
1.50043
1.36717
1.22036
1.06789
0.925543
0.800262
0.639497
0.439838
0.289885
0.184409
0.105545
0.049727
0.0169974
0.00319503
0.000131261
0.147739
0.41367
0.658067
0.876236
1.06579
1.22723
1.36249
1.47366
1.56366
1.63546
1.69189
1.73558
1.76886
1.79381
1.81217
1.82545
1.83484
1.84132
1.84563
1.84834
1.84981
1.85025
1.84972
1.8481
1.84507
1.84011
1.83246
1.82103
1.80446
1.78104
1.74879
1.70553
1.64906
1.57738
1.48905
1.38358
1.26195
1.12756
0.987693
0.858903
0.717848
0.545463
0.385664
0.252246
0.154268
0.0827605
0.0351658
0.0106759
0.00158394
4.98353e-05
0.133139
0.375088
0.596722
0.793575
0.964119
1.10883
1.22953
1.32864
1.40887
1.4729
1.52328
1.56233
1.59214
1.61452
1.63103
1.64299
1.65148
1.65735
1.66128
1.66377
1.66514
1.6656
1.66518
1.66379
1.66114
1.65678
1.65001
1.63987
1.62515
1.60431
1.57558
1.53703
1.48666
1.42269
1.34382
1.24955
1.14043
1.01807
0.885651
0.757654
0.629329
0.485729
0.3474
0.231124
0.139431
0.0728584
0.0308875
0.00913428
0.00135083
4.58887e-05
0.11726
0.332421
0.528612
0.701911
0.851087
0.977308
1.08225
1.16832
1.238
1.29367
1.33753
1.37159
1.39764
1.41724
1.43173
1.44225
1.44974
1.45493
1.45843
1.46065
1.46191
1.46236
1.46204
1.46088
1.45863
1.45489
1.44906
1.44031
1.42757
1.40952
1.38461
1.35115
1.30741
1.2518
1.18318
1.10119
1.00648
0.900274
0.782432
0.661292
0.540626
0.418044
0.301671
0.201271
0.121307
0.0632547
0.0266209
0.00783873
0.0011611
3.95192e-05
0.100556
0.286668
0.455255
0.603213
0.729775
0.836275
0.924664
0.997138
1.05586
1.10284
1.13992
1.16878
1.1909
1.20758
1.21993
1.22893
1.23534
1.23981
1.24282
1.24476
1.24587
1.24629
1.24607
1.24513
1.24328
1.24018
1.23531
1.228
1.21732
1.20217
1.18124
1.1531
1.11627
1.06939
1.01136
0.941737
0.861124
0.771275
0.67193
0.566687
0.460343
0.35549
0.25727
0.171898
0.103553
0.0539707
0.0226731
0.00666539
0.000986925
3.35888e-05
0.0835951
0.239311
0.379184
0.500736
0.604124
0.69072
0.76248
0.821343
0.869106
0.9074
0.9377
0.961331
0.97948
0.993192
1.00337
1.0108
1.01611
1.01981
1.02233
1.02395
1.02489
1.02528
1.02513
1.0244
1.02294
1.02045
1.01655
1.01065
1.00203
0.989773
0.972828
0.950024
0.920165
0.882139
0.835028
0.77824
0.71193
0.63775
0.556405
0.469746
0.381317
0.294581
0.213682
0.143098
0.0863113
0.0450251
0.0189214
0.00556197
0.000823326
2.80119e-05
0.0669817
0.192091
0.303277
0.398811
0.479481
0.546839
0.602634
0.648465
0.685737
0.715696
0.739459
0.758035
0.77233
0.783151
0.7912
0.79708
0.801291
0.804241
0.806247
0.807551
0.808318
0.808645
0.808559
0.80802
0.806906
0.805005
0.802
0.797449
0.790782
0.781292
0.768151
0.750442
0.727228
0.69765
0.661026
0.616873
0.565022
0.506507
0.4424
0.37413
0.30417
0.235469
0.171335
0.115144
0.0696708
0.0364412
0.0153435
0.00451472
0.000668327
2.27276e-05
0.0513363
0.147013
0.230841
0.30199
0.361639
0.411352
0.452573
0.486515
0.514197
0.536509
0.554249
0.568146
0.578859
0.586981
0.593031
0.597457
0.600632
0.60286
0.604381
0.605374
0.605966
0.606228
0.606185
0.605806
0.605004
0.603622
0.601426
0.59809
0.593194
0.586215
0.576539
0.563484
0.546344
0.524464
0.49735
0.464696
0.426318
0.382729
0.334826
0.28378
0.231337
0.179692
0.131311
0.0886869
0.0539376
0.0283452
0.0119793
0.0035326
0.000523192
1.77818e-05
0.037239
0.10606
0.165264
0.214857
0.256198
0.29065
0.319291
0.342952
0.362309
0.377953
0.390417
0.400197
0.407746
0.413476
0.417749
0.420878
0.423125
0.424705
0.425786
0.426495
0.426922
0.427119
0.427102
0.426853
0.42631
0.425366
0.423858
0.42156
0.41818
0.413353
0.406655
0.397613
0.385731
0.370537
0.351667
0.328933
0.302233
0.271817
0.238287
0.202498
0.165645
0.129232
0.0949607
0.0645625
0.0395537
0.0209375
0.00890313
0.00263583
0.000390852
1.32765e-05
0.0251785
0.0709526
0.109441
0.141265
0.167715
0.189811
0.208251
0.223541
0.236087
0.246248
0.254356
0.260724
0.265644
0.269381
0.27217
0.274213
0.275682
0.276716
0.277425
0.277892
0.278176
0.278311
0.278308
0.278157
0.277817
0.277221
0.276263
0.274799
0.272638
0.269548
0.265254
0.259452
0.251825
0.242067
0.229925
0.215275
0.198075
0.17846
0.156794
0.133631
0.109733
0.086047
0.0636479
0.0436347
0.0269967
0.0144424
0.00620125
0.00184833
0.000274743
9.32861e-06
0.0155045
0.0429261
0.0653657
0.0837298
0.0990098
0.111834
0.122587
0.131532
0.138888
0.144853
0.149617
0.153361
0.156254
0.158452
0.160093
0.161295
0.162161
0.16277
0.163189
0.163466
0.163636
0.163719
0.163722
0.163639
0.163447
0.163107
0.162557
0.161713
0.160465
0.158677
0.156187
0.152819
0.148389
0.142721
0.135661
0.127129
0.117111
0.105683
0.0930476
0.0795255
0.065556
0.0516795
0.0385049
0.0266551
0.0166985
0.00906663
0.00395283
0.00119214
0.000178031
6.04193e-06
0.00837542
0.0225536
0.033818
0.0430025
0.0506891
0.0571794
0.0626425
0.0671974
0.0709469
0.0739889
0.0764187
0.0783282
0.0798038
0.0809247
0.0817614
0.0823748
0.0828162
0.0831275
0.0833417
0.0834839
0.0835716
0.0836156
0.0836195
0.0835799
0.0834859
0.0833171
0.0830428
0.0826202
0.0819934
0.0810929
0.0798371
0.0781354
0.0758954
0.0730283
0.0694561
0.0651351
0.060059
0.0542683
0.0478635
0.0410072
0.0339203
0.0268725
0.0201649
0.0141028
0.00896392
0.00496313
0.00221505
0.000682595
0.00010301
3.49403e-06
0.00370638
0.00957198
0.0141179
0.017848
0.0209974
0.0236698
0.0259238
0.0278042
0.0293521
0.0306076
0.0316101
0.0323976
0.033006
0.033468
0.0338129
0.0340657
0.0342476
0.034376
0.0344645
0.0345234
0.0345599
0.0345787
0.0345812
0.034566
0.0345287
0.0344609
0.03435
0.0341783
0.0339229
0.033555
0.0330409
0.032343
0.0314231
0.030245
0.0287769
0.0269998
0.0249116
0.0225294
0.019895
0.0170752
0.0141611
0.0112627
0.00850189
0.00600108
0.00387008
0.00219197
0.00101117
0.000324011
5.02262e-05
1.70999e-06
0.00116387
0.00284159
0.00413416
0.00520944
0.00612323
0.00689982
0.00755473
0.00810076
0.00854994
0.00891402
0.00920456
0.00943268
0.00960882
0.00974255
0.00984232
0.00991545
0.00996809
0.0100053
0.0100309
0.010048
0.0100587
0.0100643
0.0100653
0.0100612
0.0100508
0.0100317
0.0100001
0.00995103
0.00987762
0.0097716
0.00962313
0.00942119
0.00915448
0.00881261
0.00838643
0.0078703
0.00726363
0.00657164
0.00580658
0.00498808
0.00414269
0.00330241
0.00250231
0.00177738
0.0011588
0.000669723
0.000320779
0.000109261
1.80698e-05
6.27651e-07
0.000183158
0.000424141
0.000613099
0.000771451
0.000906036
0.00102029
0.00111654
0.00119672
0.00126261
0.00131598
0.00135854
0.00139193
0.0014177
0.00143725
0.00145183
0.00146251
0.0014702
0.00147563
0.00147938
0.00148189
0.00148347
0.00148432
0.00148449
0.00148395
0.00148249
0.00147976
0.00147522
0.00146811
0.00145743
0.00144194
0.00142018
0.00139052
0.00135126
0.00130086
0.00123798
0.00116178
0.00107218
0.000969969
0.000856997
0.000736195
0.000611515
0.000487712
0.000369963
0.000263365
0.000172434
0.000100605
4.93965e-05
1.7892e-05
3.34784e-06
1.26264e-07
6.28751e-06
1.4554e-05
2.09855e-05
2.63618e-05
3.09263e-05
3.47984e-05
3.80579e-05
4.07708e-05
4.29989e-05
4.48022e-05
4.6239e-05
4.73656e-05
4.82343e-05
4.88929e-05
4.93837e-05
4.97431e-05
5.00016e-05
5.01842e-05
5.03102e-05
5.03949e-05
5.04482e-05
5.04776e-05
5.04847e-05
5.04677e-05
5.04203e-05
5.03306e-05
5.01801e-05
4.99427e-05
4.95841e-05
4.90619e-05
4.83266e-05
4.7322e-05
4.59888e-05
4.42745e-05
4.21337e-05
3.95371e-05
3.64821e-05
3.29963e-05
2.91435e-05
2.50246e-05
2.07754e-05
1.65591e-05
1.25537e-05
8.93267e-06
5.84576e-06
3.40871e-06
1.67924e-06
6.19525e-07
1.24981e-07
8.03459e-09
4.60222e-06
1.16734e-07
8.74101e-09
7.13249e-10
2.48005e-11
1.29263e-12
4.30589e-14
4.15137e-15
1e-15
1e-15
1e-15
1e-15
1.09781e-15
1.3926e-15
7.2503e-13
1.39449e-11
2.77515e-10
5.57816e-09
1.11956e-07
2.47678e-06
9.79531e-05
6.05707e-06
3.84041e-07
2.90705e-08
2.09298e-09
1.39031e-10
5.29509e-12
1.02731e-13
1.34454e-15
1.40482e-15
2.72518e-15
1.39591e-14
2.19441e-13
4.25483e-12
8.22754e-11
1.47867e-09
2.86201e-08
5.63178e-07
1.10969e-05
0.00021437
2.96959e-05
1.20834e-06
7.61699e-08
6.79251e-09
4.72179e-10
2.81779e-11
1.33026e-12
1.29272e-15
1.43991e-15
1.12765e-15
1.21555e-15
3.78579e-15
9.77479e-14
1.00065e-12
1.74206e-11
3.27902e-10
6.21628e-09
1.21808e-07
2.43223e-06
5.26699e-05
7.85625e-09
1.22197e-07
6.06365e-07
1.64533e-06
3.33018e-06
5.68457e-06
8.65458e-06
1.2126e-05
1.59482e-05
1.99515e-05
2.39652e-05
2.78343e-05
3.14325e-05
3.46682e-05
3.7487e-05
3.98692e-05
4.1824e-05
4.33826e-05
4.45904e-05
4.55004e-05
4.61667e-05
4.6641e-05
4.6969e-05
4.71899e-05
4.73349e-05
4.74286e-05
4.74891e-05
4.75293e-05
4.75578e-05
4.75799e-05
4.75987e-05
4.76158e-05
4.76321e-05
4.76478e-05
4.76633e-05
4.76792e-05
4.76962e-05
4.77153e-05
4.77377e-05
4.7765e-05
4.77989e-05
4.78412e-05
4.78935e-05
4.79571e-05
4.80326e-05
4.81196e-05
4.82166e-05
4.83207e-05
4.84279e-05
4.85336e-05
4.86332e-05
4.87228e-05
4.87994e-05
4.88613e-05
4.89079e-05
4.89401e-05
4.89597e-05
4.89682e-05
4.89697e-05
4.89662e-05
4.89597e-05
4.8952e-05
4.89447e-05
4.89385e-05
4.89335e-05
4.89298e-05
4.89273e-05
4.89257e-05
4.89248e-05
4.89244e-05
4.89244e-05
4.89245e-05
4.89245e-05
4.89245e-05
4.89247e-05
4.89248e-05
4.89248e-05
4.89248e-05
4.8925e-05
4.89251e-05
4.89249e-05
4.89247e-05
4.89242e-05
4.89234e-05
4.89213e-05
4.89177e-05
4.89115e-05
4.89013e-05
4.88847e-05
4.88587e-05
4.88192e-05
4.87605e-05
4.86761e-05
4.85582e-05
4.83992e-05
4.81934e-05
4.79413e-05
4.7655e-05
4.7365e-05
4.71353e-05
1.23466e-07
3.27182e-06
1.74798e-05
4.82898e-05
9.83109e-05
0.000168197
0.000256371
0.00035943
0.000472875
0.000591664
0.000710734
0.000825493
0.000932193
0.00102813
0.0011117
0.00118231
0.00124025
0.00128645
0.00132225
0.00134923
0.00136899
0.00138305
0.00139278
0.00139933
0.00140364
0.00140642
0.00140822
0.00140941
0.00141026
0.00141092
0.00141148
0.00141199
0.00141247
0.00141294
0.0014134
0.00141388
0.00141438
0.00141495
0.00141562
0.00141644
0.00141745
0.00141872
0.00142028
0.00142219
0.00142445
0.00142706
0.00142997
0.00143309
0.00143631
0.00143948
0.00144248
0.00144518
0.00144749
0.00144936
0.00145078
0.00145176
0.00145236
0.00145263
0.00145269
0.0014526
0.00145241
0.00145219
0.00145197
0.00145179
0.00145164
0.00145153
0.00145146
0.00145141
0.00145138
0.00145137
0.00145137
0.00145138
0.00145137
0.00145137
0.00145138
0.00145138
0.00145138
0.00145138
0.00145139
0.00145139
0.00145139
0.00145138
0.00145137
0.00145134
0.00145128
0.00145117
0.00145099
0.00145068
0.00145019
0.00144942
0.00144824
0.00144649
0.00144398
0.00144047
0.00143573
0.00142959
0.00142208
0.00141354
0.0014049
0.00139805
6.14653e-07
1.76604e-05
0.000106674
0.000313277
0.000654353
0.00113201
0.00173505
0.00244009
0.00321594
0.00402778
0.00484095
0.00562412
0.00635179
0.00700564
0.00757487
0.00805565
0.00845
0.00876434
0.00900792
0.00919144
0.00932585
0.00942156
0.00948779
0.00953239
0.0095617
0.00958065
0.0095929
0.00960105
0.00960682
0.00961132
0.00961517
0.00961868
0.00962201
0.00962525
0.00962847
0.00963176
0.00963529
0.00963927
0.00964395
0.00964968
0.0096568
0.0096657
0.00967673
0.00969017
0.00970616
0.00972464
0.00974529
0.00976752
0.00979049
0.00981322
0.00983474
0.00985419
0.00987092
0.00988457
0.00989498
0.00990232
0.009907
0.00990922
0.00990989
0.00990947
0.00990836
0.00990694
0.00990554
0.00990431
0.00990333
0.00990259
0.00990208
0.00990175
0.00990156
0.00990147
0.00990146
0.00990148
0.00990147
0.00990147
0.0099015
0.00990152
0.00990151
0.00990152
0.00990154
0.00990157
0.00990155
0.0099015
0.00990143
0.00990123
0.00990082
0.00990008
0.00989882
0.00989671
0.00989331
0.00988798
0.00987985
0.0098678
0.00985043
0.00982615
0.00979333
0.00975075
0.00969845
0.00963903
0.00957919
0.00953155
1.67772e-06
4.91599e-05
0.000316692
0.00098862
0.00214454
0.00378754
0.00587197
0.00831336
0.0110009
0.013812
0.0166252
0.019332
0.0218444
0.0240994
0.0260607
0.0277156
0.0290719
0.0301522
0.0309888
0.0316187
0.0320798
0.0324079
0.0326348
0.0327875
0.0328877
0.0329523
0.0329941
0.0330218
0.0330416
0.0330571
0.0330704
0.0330827
0.0330944
0.0331058
0.0331172
0.033129
0.0331416
0.0331559
0.0331728
0.0331935
0.0332193
0.0332516
0.0332919
0.033341
0.0333998
0.0334679
0.0335444
0.033627
0.0337128
0.0337981
0.0338791
0.0339528
0.0340167
0.0340693
0.03411
0.0341391
0.0341586
0.0341686
0.0341725
0.0341722
0.0341693
0.0341649
0.0341603
0.0341562
0.0341529
0.0341504
0.0341486
0.0341474
0.0341468
0.0341465
0.0341464
0.0341464
0.0341464
0.0341464
0.0341465
0.0341465
0.0341465
0.0341465
0.0341466
0.0341467
0.0341466
0.0341465
0.0341463
0.0341455
0.0341441
0.0341415
0.0341371
0.0341298
0.0341178
0.0340992
0.0340707
0.0340284
0.0339673
0.0338818
0.0337657
0.0336145
0.0334274
0.0332139
0.0330012
0.0328405
3.42319e-06
0.000100943
0.000668507
0.00217038
0.004867
0.0087942
0.0138347
0.0197695
0.0263167
0.033168
0.0400218
0.0466103
0.0527182
0.0581938
0.0629495
0.0669574
0.0702378
0.0728475
0.0748659
0.0763839
0.0774935
0.0782818
0.0788259
0.0791908
0.0794294
0.0795827
0.0796812
0.0797467
0.0797934
0.0798305
0.0798628
0.0798929
0.0799219
0.0799505
0.0799792
0.080009
0.0800412
0.0800778
0.0801213
0.0801749
0.080242
0.0803264
0.0804317
0.0805611
0.0807164
0.0808976
0.0811023
0.0813247
0.0815568
0.0817888
0.0820104
0.0822132
0.0823903
0.0825378
0.0826535
0.0827372
0.0827961
0.0828291
0.0828438
0.0828468
0.0828423
0.0828334
0.0828233
0.0828138
0.0828058
0.0827997
0.0827954
0.0827925
0.0827908
0.0827899
0.0827896
0.0827896
0.0827897
0.0827897
0.0827899
0.08279
0.0827899
0.08279
0.0827902
0.0827904
0.0827903
0.08279
0.0827894
0.0827875
0.082784
0.0827777
0.0827668
0.0827487
0.0827193
0.0826731
0.0826026
0.0824976
0.0823459
0.0821327
0.0818425
0.0814616
0.0809853
0.0804347
0.0798915
0.079553
5.90621e-06
0.000174591
0.00117027
0.00388376