/*--------------------------------*- C++ -*----------------------------------*\
| =========                 |                                                 |
| \\      /  F ield         | foam-extend: Open Source CFD                    |
|  \\    /   O peration     | Version:     4.0                                |
|   \\  /    A nd           | Web:         http://www.foam-extend.org         |
|    \\/     M anipulation  |                                                 |
\*---------------------------------------------------------------------------*/
FoamFile
{
    version     2.0;
    format      ascii;
    class       volScalarField;
    location    "0.0004";
    object      nut;
}
// * * * * * * * * * * * * * * * * * * * * * * * * * * * * * * * * * * * * * //

dimensions      [0 2 -1 0 0 0 0];

internalField   nonuniform List<scalar> 
28770
(
2.58385e-13
6.27253e-13
9.37603e-13
1.22251e-12
1.46635e-12
1.68343e-12
1.86948e-12
2.02732e-12
2.15878e-12
2.26631e-12
2.35264e-12
2.42061e-12
2.47306e-12
2.51273e-12
2.54208e-12
2.56332e-12
2.5783e-12
2.58858e-12
2.59537e-12
2.59959e-12
2.60189e-12
2.60267e-12
2.60209e-12
2.60011e-12
2.59641e-12
2.5905e-12
2.58158e-12
2.56855e-12
2.54998e-12
2.5241e-12
2.48879e-12
2.44164e-12
2.38008e-12
2.30149e-12
2.20346e-12
2.08409e-12
1.94237e-12
1.77846e-12
1.59411e-12
1.39284e-12
1.18009e-12
9.63028e-13
7.50195e-13
5.50841e-13
3.74046e-13
2.27714e-13
1.17518e-13
4.57724e-14
1.00796e-14
7.59623e-16
5.43042e-11
1.10235e-10
1.61966e-10
2.10605e-10
2.52546e-10
2.89757e-10
3.2172e-10
3.48826e-10
3.71401e-10
3.89866e-10
4.04691e-10
4.16365e-10
4.25376e-10
4.32189e-10
4.37233e-10
4.40883e-10
4.4346e-10
4.45228e-10
4.46396e-10
4.47123e-10
4.47519e-10
4.47653e-10
4.47554e-10
4.47211e-10
4.46574e-10
4.45555e-10
4.44016e-10
4.41768e-10
4.38564e-10
4.34099e-10
4.28008e-10
4.19876e-10
4.09259e-10
3.95705e-10
3.78801e-10
3.58223e-10
3.33793e-10
3.05545e-10
2.7378e-10
2.3911e-10
2.02471e-10
1.65103e-10
1.28478e-10
9.4188e-11
6.37951e-11
3.865e-11
1.96977e-11
7.26914e-12
1.1182e-12
1.15738e-14
1.4238e-09
2.37802e-09
3.31752e-09
4.25106e-09
5.08045e-09
5.81706e-09
6.45268e-09
6.99207e-09
7.44144e-09
7.809e-09
8.10413e-09
8.33659e-09
8.51605e-09
8.6518e-09
8.75233e-09
8.82512e-09
8.87655e-09
8.91187e-09
8.93525e-09
8.9498e-09
8.95775e-09
8.96044e-09
8.95844e-09
8.95154e-09
8.9387e-09
8.91814e-09
8.88708e-09
8.8417e-09
8.77702e-09
8.68686e-09
8.56388e-09
8.39971e-09
8.18538e-09
7.91183e-09
7.57076e-09
7.15568e-09
6.66308e-09
6.09374e-09
5.45385e-09
4.75583e-09
4.01867e-09
3.26737e-09
2.53153e-09
1.8429e-09
1.23211e-09
7.24856e-10
3.39885e-10
9.60825e-11
7.84105e-12
5.26938e-14
1.38685e-08
1.93606e-08
2.52145e-08
3.14076e-08
3.71605e-08
4.23497e-08
4.68715e-08
5.07248e-08
5.39418e-08
5.65756e-08
5.86912e-08
6.03582e-08
6.16457e-08
6.26199e-08
6.33416e-08
6.38645e-08
6.42343e-08
6.44885e-08
6.46568e-08
6.47618e-08
6.48191e-08
6.48385e-08
6.48238e-08
6.47732e-08
6.46794e-08
6.4529e-08
6.43015e-08
6.39691e-08
6.34951e-08
6.28343e-08
6.19327e-08
6.07293e-08
5.9158e-08
5.71529e-08
5.46532e-08
5.16117e-08
4.80033e-08
4.38339e-08
3.91491e-08
3.404e-08
2.86448e-08
2.31443e-08
1.77509e-08
1.26901e-08
8.18222e-09
4.44387e-09
1.74278e-09
3.57236e-10
2.16867e-11
1.34839e-13
7.62166e-08
9.36686e-08
1.14291e-07
1.37429e-07
1.59938e-07
1.80768e-07
1.99222e-07
2.15096e-07
2.28422e-07
2.39366e-07
2.48172e-07
2.55118e-07
2.60487e-07
2.64553e-07
2.67566e-07
2.69751e-07
2.71297e-07
2.72361e-07
2.73066e-07
2.73506e-07
2.73746e-07
2.73826e-07
2.73762e-07
2.73545e-07
2.73142e-07
2.72497e-07
2.71522e-07
2.70095e-07
2.6806e-07
2.65221e-07
2.61347e-07
2.56175e-07
2.49421e-07
2.40801e-07
2.30055e-07
2.16978e-07
2.01461e-07
1.83526e-07
1.63363e-07
1.41352e-07
1.18072e-07
9.42795e-08
7.08776e-08
4.88839e-08
2.94821e-08
1.41848e-08
4.61457e-09
7.79887e-10
4.28898e-11
2.60842e-13
2.88061e-07
3.27112e-07
3.78519e-07
4.3937e-07
5.01078e-07
5.59837e-07
6.12986e-07
6.5934e-07
6.9861e-07
7.3106e-07
7.5727e-07
7.77996e-07
7.94046e-07
8.06215e-07
8.15246e-07
8.21798e-07
8.26439e-07
8.29634e-07
8.31754e-07
8.33076e-07
8.33794e-07
8.34028e-07
8.3382e-07
8.33143e-07
8.31893e-07
8.2989e-07
8.26859e-07
8.22422e-07
8.16088e-07
8.0725e-07
7.95181e-07
7.79059e-07
7.57997e-07
7.31102e-07
6.97552e-07
6.56694e-07
6.08164e-07
5.51996e-07
4.88733e-07
4.19509e-07
3.46094e-07
2.70917e-07
1.97127e-07
1.28814e-07
7.13103e-08
3.04353e-08
8.70037e-09
1.34269e-09
7.11967e-11
4.28764e-13
8.38097e-07
9.11009e-07
1.01189e-06
1.13821e-06
1.27106e-06
1.40105e-06
1.52121e-06
1.62771e-06
1.71902e-06
1.79512e-06
1.85696e-06
1.90608e-06
1.94423e-06
1.97323e-06
1.99479e-06
2.01045e-06
2.02156e-06
2.02921e-06
2.03429e-06
2.03746e-06
2.03917e-06
2.0397e-06
2.03915e-06
2.03743e-06
2.0343e-06
2.02927e-06
2.02166e-06
2.01052e-06
1.9946e-06
1.97236e-06
1.94197e-06
1.90133e-06
1.84818e-06
1.78022e-06
1.69533e-06
1.59179e-06
1.46855e-06
1.32559e-06
1.16418e-06
9.87176e-07
7.99429e-07
6.08185e-07
4.23771e-07
2.60013e-07
1.32505e-07
5.16732e-08
1.37111e-08
2.02754e-09
1.05694e-10
6.32975e-13
2.00834e-06
2.13388e-06
2.30504e-06
2.52692e-06
2.76698e-06
3.00744e-06
3.23425e-06
3.43861e-06
3.61609e-06
3.76555e-06
3.88799e-06
3.98581e-06
4.06214e-06
4.12035e-06
4.16375e-06
4.19535e-06
4.21779e-06
4.23326e-06
4.24353e-06
4.24991e-06
4.25332e-06
4.2543e-06
4.25302e-06
4.24929e-06
4.24252e-06
4.23169e-06
4.2153e-06
4.19126e-06
4.15688e-06
4.10878e-06
4.04295e-06
3.95477e-06
3.83926e-06
3.69128e-06
3.50605e-06
3.27959e-06
3.00943e-06
2.69539e-06
2.34044e-06
1.95186e-06
1.54273e-06
1.13355e-06
7.53083e-07
4.35102e-07
2.07518e-07
7.6284e-08
1.94276e-08
2.81038e-09
1.45007e-10
8.64543e-13
4.13521e-06
4.35629e-06
4.62466e-06
4.96913e-06
5.34875e-06
5.73597e-06
6.10759e-06
6.44756e-06
6.74661e-06
7.00115e-06
7.21155e-06
7.38083e-06
7.51368e-06
7.61546e-06
7.69161e-06
7.7472e-06
7.78676e-06
7.81407e-06
7.83217e-06
7.84336e-06
7.84925e-06
7.85072e-06
7.84803e-06
7.84074e-06
7.82768e-06
7.80687e-06
7.77536e-06
7.72911e-06
7.66285e-06
7.56998e-06
7.44262e-06
7.27167e-06
7.04719e-06
6.75898e-06
6.39734e-06
5.95431e-06
5.42508e-06
4.80998e-06
4.11695e-06
3.36474e-06
2.58653e-06
1.83201e-06
1.16341e-06
6.39501e-07
2.90761e-07
1.03009e-07
2.56362e-08
3.66344e-09
1.87721e-10
1.11382e-12
7.51211e-06
7.93349e-06
8.34667e-06
8.83443e-06
9.37521e-06
9.9333e-06
1.04759e-05
1.09788e-05
1.14262e-05
1.18109e-05
1.21318e-05
1.2392e-05
1.25974e-05
1.27557e-05
1.28745e-05
1.29616e-05
1.30237e-05
1.30666e-05
1.3095e-05
1.31124e-05
1.31213e-05
1.3123e-05
1.31178e-05
1.31047e-05
1.30817e-05
1.30451e-05
1.29898e-05
1.29085e-05
1.27918e-05
1.26279e-05
1.24027e-05
1.20996e-05
1.17008e-05
1.11875e-05
1.05424e-05
9.75168e-06
8.80817e-06
7.71617e-06
6.49685e-06
5.19463e-06
3.88187e-06
2.65642e-06
1.62348e-06
8.59462e-07
3.78055e-07
1.30809e-07
3.21025e-08
4.5553e-09
2.32628e-10
1.37707e-12
1.22476e-05
1.30776e-05
1.37171e-05
1.43852e-05
1.50996e-05
1.58362e-05
1.65567e-05
1.72307e-05
1.7836e-05
1.8361e-05
1.88025e-05
1.91631e-05
1.94497e-05
1.96716e-05
1.98391e-05
1.99622e-05
2.00501e-05
2.01109e-05
2.01509e-05
2.01752e-05
2.01871e-05
2.01882e-05
2.01787e-05
2.01569e-05
2.01192e-05
2.00596e-05
1.99696e-05
1.98371e-05
1.96467e-05
1.93787e-05
1.90095e-05
1.85116e-05
1.78552e-05
1.70094e-05
1.59463e-05
1.46454e-05
1.31003e-05
1.13277e-05
9.37715e-06
7.33879e-06
5.34427e-06
3.55106e-06
2.10492e-06
1.085e-06
4.66741e-07
1.58965e-07
3.86194e-08
5.44862e-09
2.77544e-10
1.64464e-12
1.81663e-05
1.97328e-05
2.07284e-05
2.16589e-05
2.25557e-05
2.34655e-05
2.43524e-05
2.51848e-05
2.59369e-05
2.65934e-05
2.71491e-05
2.76059e-05
2.79712e-05
2.82554e-05
2.84708e-05
2.86296e-05
2.87432e-05
2.88216e-05
2.8873e-05
2.89035e-05
2.89174e-05
2.89164e-05
2.89004e-05
2.88663e-05
2.88084e-05
2.87176e-05
2.85804e-05
2.83786e-05
2.80879e-05
2.76782e-05
2.71126e-05
2.6349e-05
2.53411e-05
2.40429e-05
2.24141e-05
2.04296e-05
1.80915e-05
1.5443e-05
1.25815e-05
9.66293e-06
6.88914e-06
4.47275e-06
2.58788e-06
1.30939e-06
5.55426e-07
1.87437e-07
4.52244e-08
6.34331e-09
3.20937e-10
1.87791e-12
2.48281e-05
2.75267e-05
2.90522e-05
3.03573e-05
3.14811e-05
3.25573e-05
3.35899e-05
3.45539e-05
3.5426e-05
3.61896e-05
3.68386e-05
3.73747e-05
3.78052e-05
3.81417e-05
3.83974e-05
3.85864e-05
3.87216e-05
3.88147e-05
3.88751e-05
3.89099e-05
3.89239e-05
3.89187e-05
3.88933e-05
3.8843e-05
3.87594e-05
3.8629e-05
3.84324e-05
3.81429e-05
3.77258e-05
3.7137e-05
3.63236e-05
3.52246e-05
3.37745e-05
3.19096e-05
2.95786e-05
2.67575e-05
2.34682e-05
1.97982e-05
1.59116e-05
1.20424e-05
8.45887e-06
5.40534e-06
3.06536e-06
1.52856e-06
6.42699e-07
2.16393e-07
5.2195e-08
7.32788e-09
3.72925e-10
2.20235e-12
3.16707e-05
3.58604e-05
3.80957e-05
3.98695e-05
4.13307e-05
4.25803e-05
4.3742e-05
4.48091e-05
4.5769e-05
4.66084e-05
4.73222e-05
4.79132e-05
4.83891e-05
4.8762e-05
4.90459e-05
4.92558e-05
4.94058e-05
4.95084e-05
4.9574e-05
4.96101e-05
4.96216e-05
4.96097e-05
4.95722e-05
4.95022e-05
4.93879e-05
4.92107e-05
4.89442e-05
4.8552e-05
4.79866e-05
4.71883e-05
4.60849e-05
4.45946e-05
4.26308e-05
4.01124e-05
3.69803e-05
3.32198e-05
2.88864e-05
2.41282e-05
1.919e-05
1.43862e-05
1.00346e-05
6.3673e-06
3.55335e-06
1.75e-06
7.30805e-07
2.46473e-07
5.95122e-08
8.31085e-09
4.18966e-10
2.42719e-12
3.81827e-05
4.40907e-05
4.71726e-05
4.95014e-05
5.13789e-05
5.28539e-05
5.41384e-05
5.52892e-05
5.63098e-05
5.71967e-05
5.79484e-05
5.85701e-05
5.90707e-05
5.94631e-05
5.97618e-05
5.99824e-05
6.01393e-05
6.02456e-05
6.0312e-05
6.03461e-05
6.03524e-05
6.03315e-05
6.02794e-05
6.0187e-05
6.00385e-05
5.98099e-05
5.94668e-05
5.89623e-05
5.82354e-05
5.7209e-05
5.57911e-05
5.38778e-05
5.13616e-05
4.8146e-05
4.41687e-05
3.94323e-05
3.4038e-05
2.82081e-05
2.22781e-05
1.66412e-05
1.16383e-05
7.37463e-06
4.06816e-06
1.99998e-06
8.41546e-07
2.89996e-07
7.15545e-08
1.01077e-08
5.10145e-10
2.73569e-12
4.40067e-05
5.16875e-05
5.56753e-05
5.86048e-05
6.09103e-05
6.26987e-05
6.41174e-05
6.53443e-05
6.64093e-05
6.73242e-05
6.8094e-05
6.87276e-05
6.92365e-05
6.96345e-05
6.99368e-05
7.0159e-05
7.0316e-05
7.04209e-05
7.04841e-05
7.05133e-05
7.05122e-05
7.04804e-05
7.04123e-05
7.02961e-05
7.0112e-05
6.98303e-05
6.94087e-05
6.87898e-05
6.78985e-05
6.66409e-05
6.49051e-05
6.25661e-05
5.94971e-05
5.55889e-05
5.07799e-05
4.50948e-05
3.86858e-05
3.18587e-05
2.5055e-05
1.8779e-05
1.50139e-05
9.17871e-06
5.10787e-06
2.56041e-06
1.15479e-06
4.32036e-07
1.22519e-07
2.16346e-08
1.59582e-09
1.25767e-11
4.8963e-05
5.83187e-05
6.31913e-05
6.67186e-05
6.94471e-05
7.15744e-05
7.31585e-05
7.44593e-05
7.55623e-05
7.64953e-05
7.72721e-05
7.79066e-05
7.84136e-05
7.88081e-05
7.91064e-05
7.93242e-05
7.94765e-05
7.95763e-05
7.96337e-05
7.96559e-05
7.9646e-05
7.96024e-05
7.95178e-05
7.93778e-05
7.91587e-05
7.88256e-05
7.83285e-05
7.75999e-05
7.65519e-05
7.50746e-05
7.30379e-05
7.02979e-05
6.67109e-05
6.21577e-05
5.65791e-05
5.00206e-05
4.26785e-05
3.49309e-05
2.73134e-05
2.03591e-05
1.56257e-05
9.56591e-06
5.1287e-06
2.55728e-06
1.17157e-06
4.53992e-07
1.30238e-07
2.29641e-08
1.63657e-09
1.02793e-11
5.30132e-05
6.38441e-05
6.95179e-05
7.35968e-05
7.67194e-05
7.91471e-05
8.09354e-05
8.23169e-05
8.34578e-05
8.44056e-05
8.51854e-05
8.58163e-05
8.63167e-05
8.67036e-05
8.69942e-05
8.72046e-05
8.73497e-05
8.74424e-05
8.74926e-05
8.75069e-05
8.74877e-05
8.74322e-05
8.73316e-05
8.7169e-05
8.69176e-05
8.65372e-05
8.59714e-05
8.51438e-05
8.39548e-05
8.22809e-05
7.99759e-05
7.68799e-05
7.28353e-05
6.77155e-05
6.14647e-05
5.4145e-05
4.59801e-05
3.73844e-05
2.89496e-05
2.12432e-05
1.59048e-05
9.42842e-06
4.9356e-06
2.46024e-06
1.15489e-06
4.51798e-07
1.28273e-07
2.25813e-08
1.60049e-09
9.83492e-12
5.62122e-05
6.82716e-05
7.46276e-05
7.9185e-05
8.26554e-05
8.53412e-05
8.73339e-05
8.88007e-05
8.99773e-05
9.0939e-05
9.17213e-05
9.23481e-05
9.28413e-05
9.322e-05
9.35021e-05
9.37043e-05
9.38418e-05
9.3927e-05
9.39698e-05
9.39761e-05
9.39477e-05
9.3881e-05
9.37657e-05
9.35828e-05
9.33026e-05
9.2881e-05
9.22559e-05
9.13432e-05
9.00341e-05
8.81933e-05
8.56619e-05
8.22667e-05
7.78392e-05
7.22475e-05
6.54408e-05
5.74994e-05
4.8674e-05
3.94017e-05
3.03077e-05
2.20488e-05
1.64147e-05
9.52664e-06
4.98352e-06
2.52139e-06
1.2025e-06
3.98251e-07
1.05885e-07
1.87668e-08
1.21647e-09
5.12943e-12
5.86616e-05
7.16971e-05
7.86047e-05
8.35553e-05
8.73167e-05
9.02174e-05
9.23874e-05
9.39434e-05
9.51515e-05
9.61265e-05
9.69119e-05
9.7536e-05
9.80234e-05
9.83949e-05
9.86695e-05
9.88645e-05
9.89949e-05
9.90734e-05
9.91092e-05
9.91082e-05
9.90715e-05
9.89948e-05
9.88664e-05
9.8666e-05
9.83615e-05
9.79054e-05
9.72312e-05
9.6249e-05
9.48423e-05
9.28667e-05
9.01534e-05
8.65192e-05
8.17872e-05
7.58215e-05
6.85746e-05
6.01426e-05
5.08053e-05
4.10288e-05
3.1462e-05
2.28532e-05
1.71311e-05
9.97609e-06
5.31169e-06
2.73606e-06
1.30105e-06
4.26017e-07
1.18431e-07
2.1314e-08
1.43477e-09
6.81776e-12
6.04797e-05
7.42584e-05
8.15919e-05
8.68505e-05
9.08441e-05
9.39172e-05
9.6226e-05
9.78668e-05
9.91043e-05
0.000100092
0.000100881
0.000101504
0.000101987
0.000102354
0.000102623
0.000102812
0.000102937
0.00010301
0.00010304
0.000103032
0.000102988
0.000102903
0.000102764
0.000102549
0.000102224
0.000101741
0.000101028
9.99909e-05
9.85083e-05
9.64288e-05
9.35762e-05
8.97602e-05
8.47987e-05
7.85535e-05
7.09801e-05
6.21853e-05
5.24735e-05
4.23421e-05
3.24558e-05
2.36042e-05
1.77175e-05
1.04974e-05
5.66307e-06
2.93581e-06
1.39109e-06
4.4592e-07
1.24638e-07
2.19651e-08
1.53362e-09
7.76511e-12
6.17812e-05
7.6101e-05
8.37486e-05
8.92374e-05
9.3408e-05
9.66149e-05
9.90297e-05
0.000100742
0.000102005
0.000103003
0.000103795
0.000104418
0.0001049
0.000105263
0.000105528
0.000105713
0.000105834
0.000105902
0.000105928
0.000105915
0.000105866
0.000105773
0.000105625
0.000105399
0.000105059
0.000104553
0.000103811
0.000102733
0.000101194
9.90384e-05
9.60839e-05
9.21356e-05
8.70083e-05
8.05633e-05
7.27591e-05
6.37095e-05
5.37335e-05
4.33529e-05
3.32408e-05
2.41899e-05
1.81258e-05
1.08364e-05
5.86854e-06
3.05054e-06
1.44609e-06
4.65963e-07
1.33473e-07
2.40102e-08
1.7335e-09
7.5527e-12
6.2667e-05
7.73592e-05
8.52249e-05
9.08758e-05
9.51742e-05
9.84805e-05
0.000100974
0.000102745
0.000104028
0.000105031
0.000105827
0.00010645
0.000106931
0.000107292
0.000107556
0.000107739
0.000107857
0.000107922
0.000107945
0.000107929
0.000107875
0.000107777
0.000107622
0.000107386
0.000107035
0.000106514
0.00010575
0.000104643
0.000103064
0.000100855
9.78299e-05
9.3791e-05
8.85507e-05
8.19706e-05
7.40124e-05
6.47947e-05
5.46435e-05
4.40944e-05
3.38262e-05
2.46271e-05
1.84161e-05
1.1044e-05
5.98713e-06
3.12005e-06
1.4874e-06
4.93352e-07
1.42237e-07
2.64958e-08
1.69103e-09
1.93394e-11
6.32193e-05
7.81464e-05
8.61512e-05
9.19061e-05
9.62883e-05
9.96624e-05
0.00010221
0.000104028
0.000105326
0.00010633
0.000107126
0.000107751
0.000108232
0.000108594
0.000108857
0.000109039
0.000109156
0.00010922
0.000109241
0.000109222
0.000109165
0.000109064
0.000108904
0.000108662
0.000108303
0.000107771
0.000106993
0.000105866
0.000104262
0.000102017
9.89472e-05
9.48507e-05
8.95394e-05
8.28751e-05
7.48218e-05
6.55019e-05
5.52443e-05
4.45911e-05
3.42253e-05
2.49384e-05
1.86703e-05
1.12299e-05
6.10963e-06
3.19468e-06
1.53996e-06
5.20649e-07
1.56027e-07
3.01825e-08
2.03706e-09
2.32395e-11
6.35026e-05
7.85598e-05
8.6648e-05
9.24653e-05
9.68979e-05
0.000100314
0.000102896
0.000104749
0.000106055
0.000107058
0.000107855
0.00010848
0.000108963
0.000109326
0.000109589
0.000109772
0.000109889
0.000109952
0.000109972
0.000109952
0.000109894
0.00010979
0.000109627
0.000109382
0.000109017
0.000108479
0.000107693
0.000106555
0.000104936
0.000102673
9.95774e-05
9.54496e-05
9.01e-05
8.33906e-05
7.52868e-05
6.59137e-05
5.56019e-05
4.48968e-05
3.44855e-05
2.51656e-05
1.88618e-05
1.14184e-05
6.24726e-06
3.28175e-06
1.59204e-06
5.42306e-07
1.70868e-07
3.70607e-08
5.04289e-09
1.20702e-10
6.35674e-05
7.86632e-05
8.67818e-05
9.26243e-05
9.7077e-05
0.000100511
0.000103107
0.000104976
0.000106285
0.000107288
0.000108086
0.000108714
0.000109199
0.000109563
0.000109828
0.000110011
0.000110129
0.000110193
0.000110213
0.000110193
0.000110134
0.000110029
0.000109866
0.00010962
0.000109254
0.000108714
0.000107925
0.000106785
0.000105161
0.000102892
9.97896e-05
9.5652e-05
9.02902e-05
8.35662e-05
7.54457e-05
6.60548e-05
5.57252e-05
4.50029e-05
3.45764e-05
2.52432e-05
1.88988e-05
1.15295e-05
6.33254e-06
3.33567e-06
1.62234e-06
5.61658e-07
1.80502e-07
4.30676e-08
7.66215e-09
6.25795e-10
6.34603e-05
7.85126e-05
8.66101e-05
9.24396e-05
9.68819e-05
0.000100309
0.000102898
0.000104751
0.00010606
0.000107068
0.00010787
0.0001085
0.000108987
0.000109353
0.000109619
0.000109803
0.000109922
0.000109987
0.000110007
0.000109989
0.00010993
0.000109827
0.000109665
0.000109421
0.000109058
0.000108521
0.000107736
0.000106601
0.000104984
0.000102723
9.96294e-05
9.55025e-05
9.01528e-05
8.34419e-05
7.53348e-05
6.59572e-05
5.564e-05
4.49287e-05
3.45111e-05
2.51762e-05
1.87912e-05
1.14948e-05
6.30171e-06
3.31688e-06
1.60956e-06
5.50948e-07
1.73262e-07
3.88262e-08
5.39495e-09
1.64843e-10
6.31499e-05
7.80674e-05
8.60838e-05
9.18551e-05
9.62515e-05
9.96433e-05
0.000102201
0.000104021
0.000105323
0.000106338
0.000107143
0.000107776
0.000108265
0.000108633
0.000108901
0.000109088
0.000109208
0.000109275
0.000109298
0.000109281
0.000109225
0.000109125
0.000108967
0.000108727
0.00010837
0.000107841
0.000107067
0.000105944
0.000104344
0.000102104
9.90366e-05
9.49416e-05
8.96294e-05
8.29614e-05
7.49014e-05
6.55731e-05
5.53046e-05
4.46385e-05
3.42609e-05
2.49556e-05
1.85361e-05
1.13275e-05
6.17956e-06
3.23649e-06
1.55893e-06
5.22492e-07
1.57105e-07
3.1339e-08
3.28531e-09
2.46783e-11
6.25981e-05
7.72753e-05
8.51467e-05
9.081e-05
9.5121e-05
9.84449e-05
0.000100948
0.00010272
0.000104011
0.000105027
0.000105834
0.000106469
0.00010696
0.000107331
0.000107602
0.000107791
0.000107915
0.000107984
0.00010801
0.000107997
0.000107945
0.00010785
0.000107697
0.000107465
0.000107117
0.000106601
0.000105842
0.000104742
0.000103169
0.000100965
9.79438e-05
9.39058e-05
8.86627e-05
8.20753e-05
7.4106e-05
6.48752e-05
5.47066e-05
4.41375e-05
3.38506e-05
2.46282e-05
1.82866e-05
1.11262e-05
6.03824e-06
3.14662e-06
1.5008e-06
4.91504e-07
1.43865e-07
2.70159e-08
2.67302e-09
2.00115e-11
6.17092e-05
7.60115e-05
8.36612e-05
8.916e-05
9.33425e-05
9.65651e-05
9.8986e-05
0.000100699
0.000101972
0.000102985
0.000103791
0.000104428
0.000104922
0.000105296
0.000105571
0.000105765
0.000105893
0.000105967
0.000105997
0.000105988
0.000105942
0.000105853
0.000105708
0.000105486
0.000105151
0.000104652
0.000103917
0.000102847
0.000101315
9.91654e-05
9.6214e-05
9.22646e-05
8.71307e-05
8.06734e-05
7.28529e-05
6.37849e-05
5.37859e-05
4.33847e-05
3.32583e-05
2.4195e-05
1.79177e-05
1.09397e-05
5.92615e-06
3.07835e-06
1.4549e-06
4.64123e-07
1.34316e-07
2.43793e-08
1.82133e-09
8.29331e-12
6.04294e-05
7.41914e-05
8.15231e-05
8.67877e-05
9.07902e-05
9.38727e-05
9.61807e-05
9.78204e-05
9.90677e-05
0.00010007
0.000100874
0.000101511
0.000102009
0.000102387
0.000102668
0.000102867
0.000103
0.000103079
0.000103115
0.000103113
0.000103074
0.000102993
0.000102858
0.000102649
0.000102331
0.000101855
0.000101151
0.000100123
9.86481e-05
9.65743e-05
9.3723e-05
8.99022e-05
8.49285e-05
7.86641e-05
7.10665e-05
6.22446e-05
5.25036e-05
4.23577e-05
3.2469e-05
2.36179e-05
1.75068e-05
1.06971e-05
5.79083e-06
3.0019e-06
1.41238e-06
4.41352e-07
1.25289e-07
2.20181e-08
1.42713e-09
7.18978e-12
5.86554e-05
7.16814e-05
7.85837e-05
8.35344e-05
8.72987e-05
9.01987e-05
9.23586e-05
9.39096e-05
9.51253e-05
9.61127e-05
9.69109e-05
9.75487e-05
9.80495e-05
9.84338e-05
9.87203e-05
9.89259e-05
9.90657e-05
9.91522e-05
9.91951e-05
9.92002e-05
9.9169e-05
9.90978e-05
9.89753e-05
9.87817e-05
9.8485e-05
9.8038e-05
9.73736e-05
9.64011e-05
9.50025e-05
9.30315e-05
9.03169e-05
8.66731e-05
8.19222e-05
7.59283e-05
6.86458e-05
6.01735e-05
5.07995e-05
4.1014e-05
3.14506e-05
2.28694e-05
1.67254e-05
1.02655e-05
5.52125e-06
2.85321e-06
1.34559e-06
4.24807e-07
1.18462e-07
2.17721e-08
1.39036e-09
6.54738e-12
5.62764e-05
6.83389e-05
7.46862e-05
7.92355e-05
8.26987e-05
8.53697e-05
8.73416e-05
8.87983e-05
8.99775e-05
9.09462e-05
9.17373e-05
9.23751e-05
9.28799e-05
9.32703e-05
9.35639e-05
9.37769e-05
9.39242e-05
9.40182e-05
9.40688e-05
9.4082e-05
9.40602e-05
9.4e-05
9.38916e-05
9.37167e-05
9.34455e-05
9.3034e-05
9.24196e-05
9.1517e-05
9.02156e-05
8.83776e-05
8.58413e-05
8.24306e-05
7.79752e-05
7.23427e-05
6.54843e-05
5.7486e-05
4.86134e-05
3.93237e-05
3.02033e-05
2.19467e-05
1.60964e-05
9.71385e-06
5.12063e-06
2.61541e-06
1.24582e-06
4.02194e-07
1.06579e-07
1.92283e-08
1.25326e-09
4.81714e-12
5.31732e-05
6.40241e-05
6.96857e-05
7.37456e-05
7.68468e-05
7.92429e-05
8.09983e-05
8.23631e-05
8.34988e-05
8.44456e-05
8.52282e-05
8.58654e-05
8.63739e-05
8.67704e-05
8.70711e-05
8.72916e-05
8.74464e-05
8.75481e-05
8.76065e-05
8.76283e-05
8.76163e-05
8.75682e-05
8.74754e-05
8.73217e-05
8.70801e-05
8.67106e-05
8.6156e-05
8.53384e-05
8.41563e-05
8.2483e-05
8.01692e-05
7.70515e-05
7.29701e-05
6.77978e-05
6.14823e-05
5.40949e-05
4.58743e-05
3.72438e-05
2.87512e-05
2.10432e-05
1.55315e-05
9.33492e-06
4.85717e-06
2.42859e-06
1.14712e-06
4.48226e-07
1.23277e-07
2.19983e-08
1.60627e-09
9.73559e-12
4.92387e-05
5.86326e-05
6.34886e-05
6.69835e-05
6.96734e-05
7.17521e-05
7.32914e-05
7.4566e-05
7.56536e-05
7.65761e-05
7.73482e-05
7.79829e-05
7.84934e-05
7.88942e-05
7.92003e-05
7.94268e-05
7.95879e-05
7.96963e-05
7.97619e-05
7.97919e-05
7.97897e-05
7.97539e-05
7.96778e-05
7.95471e-05
7.93385e-05
7.90166e-05
7.85307e-05
7.78117e-05
7.67692e-05
7.52903e-05
7.3241e-05
7.0474e-05
6.68429e-05
6.22285e-05
5.65752e-05
4.99369e-05
4.25206e-05
3.47124e-05
2.7033e-05
2.01128e-05
1.5409e-05
9.42307e-06
4.93555e-06
2.45707e-06
1.13653e-06
4.44977e-07
1.27616e-07
2.21579e-08
1.53774e-09
9.3204e-12
4.44078e-05
5.21419e-05
5.61072e-05
5.89889e-05
6.12365e-05
6.29609e-05
6.4326e-05
6.55159e-05
6.65537e-05
6.7448e-05
6.82049e-05
6.88319e-05
6.93392e-05
6.97394e-05
7.00465e-05
7.02754e-05
7.04399e-05
7.05525e-05
7.06235e-05
7.06603e-05
7.06669e-05
7.06431e-05
7.05836e-05
7.04769e-05
7.03033e-05
7.00327e-05
6.96218e-05
6.90116e-05
6.81245e-05
6.68631e-05
6.5112e-05
6.27424e-05
5.9625e-05
5.56505e-05
5.07614e-05
4.49909e-05
3.85054e-05
3.16385e-05
2.48759e-05
1.8841e-05
1.42308e-05
9.47962e-06
5.15771e-06
2.57103e-06
1.17214e-06
4.48322e-07
1.27775e-07
2.24904e-08
1.58406e-09
1.06045e-11
3.87018e-05
4.46696e-05
4.77212e-05
4.99874e-05
5.17914e-05
5.319e-05
5.44141e-05
5.55181e-05
5.65007e-05
5.73582e-05
5.80896e-05
5.86982e-05
5.91921e-05
5.95826e-05
5.98831e-05
6.01078e-05
6.02704e-05
6.03833e-05
6.04565e-05
6.04977e-05
6.05113e-05
6.0498e-05
6.04543e-05
6.03712e-05
6.02327e-05
6.00145e-05
5.96812e-05
5.91844e-05
5.84602e-05
5.74286e-05
5.59939e-05
5.40486e-05
5.14831e-05
4.82012e-05
4.41452e-05
3.93273e-05
3.3864e-05
2.80103e-05
2.21699e-05
1.69216e-05
1.19921e-05
7.45034e-06
4.1256e-06
2.01052e-06
8.61797e-07
2.9872e-07
7.28105e-08
1.0461e-08
5.20876e-10
2.7706e-12
3.22808e-05
3.65244e-05
3.8721e-05
4.04192e-05
4.1798e-05
4.29673e-05
4.40634e-05
4.50766e-05
4.59911e-05
4.67952e-05
4.74832e-05
4.80563e-05
4.85213e-05
4.88887e-05
4.91715e-05
4.93832e-05
4.9537e-05
4.96446e-05
4.97159e-05
4.97582e-05
4.97762e-05
4.97713e-05
4.97414e-05
4.96798e-05
4.95746e-05
4.94068e-05
4.91488e-05
4.87629e-05
4.81991e-05
4.73948e-05
4.62745e-05
4.47533e-05
4.27425e-05
4.01617e-05
3.69566e-05
3.31218e-05
2.87236e-05
2.39158e-05
1.8953e-05
1.43494e-05
1.01921e-05
6.46846e-06
3.63623e-06
1.80431e-06
7.61776e-07
2.56343e-07
6.21307e-08
8.70232e-09
4.36275e-10
2.55118e-12
2.54806e-05
2.82152e-05
2.96963e-05
3.09199e-05
3.19599e-05
3.29594e-05
3.39266e-05
3.48342e-05
3.56587e-05
3.63846e-05
3.70051e-05
3.75207e-05
3.79377e-05
3.82664e-05
3.85187e-05
3.87074e-05
3.88447e-05
3.89413e-05
3.90061e-05
3.9046e-05
3.90654e-05
3.90662e-05
3.90474e-05
3.90044e-05
3.89286e-05
3.8806e-05
3.86165e-05
3.83319e-05
3.79154e-05
3.73206e-05
3.64916e-05
3.53647e-05
3.38729e-05
3.1953e-05
2.95585e-05
2.66766e-05
2.33462e-05
1.9659e-05
1.57317e-05
1.19029e-05
8.41673e-06
5.40466e-06
3.08896e-06
1.54496e-06
6.53593e-07
2.19899e-07
5.30378e-08
7.42526e-09
3.74365e-10
2.19707e-12
1.87987e-05
2.03773e-05
2.13275e-05
2.21808e-05
2.30025e-05
2.38441e-05
2.4671e-05
2.54504e-05
2.61579e-05
2.67785e-05
2.73063e-05
2.77426e-05
2.80937e-05
2.8369e-05
2.85797e-05
2.87369e-05
2.88511e-05
2.89317e-05
2.89863e-05
2.90206e-05
2.90388e-05
2.90427e-05
2.90319e-05
2.90036e-05
2.8952e-05
2.88674e-05
2.87357e-05
2.85375e-05
2.82468e-05
2.78315e-05
2.72526e-05
2.64655e-05
2.54229e-05
2.40785e-05
2.23942e-05
2.03518e-05
1.79705e-05
1.5315e-05
1.24439e-05
9.53303e-06
6.80115e-06
4.42504e-06
2.56787e-06
1.29825e-06
5.52401e-07
1.86508e-07
4.50275e-08
6.30617e-09
3.18152e-10
1.86737e-12
1.27987e-05
1.36205e-05
1.42201e-05
1.48237e-05
1.54786e-05
1.61599e-05
1.68303e-05
1.74597e-05
1.80272e-05
1.85212e-05
1.89382e-05
1.92804e-05
1.95539e-05
1.97673e-05
1.99297e-05
2.00506e-05
2.01382e-05
2.02001e-05
2.02422e-05
2.02692e-05
2.02842e-05
2.02889e-05
2.02834e-05
2.0266e-05
2.02329e-05
2.0178e-05
2.00919e-05
1.99619e-05
1.97711e-05
1.94984e-05
1.91185e-05
1.86024e-05
1.79194e-05
1.70389e-05
1.59342e-05
1.45865e-05
1.29969e-05
1.12043e-05
9.2483e-06
7.21488e-06
5.24296e-06
3.47995e-06
2.06066e-06
1.05931e-06
4.55797e-07
1.54926e-07
3.75218e-08
5.2605e-09
2.65407e-10
1.55733e-12
7.93904e-06
8.34254e-06
8.72726e-06
9.16797e-06
9.66627e-06
1.01839e-05
1.0689e-05
1.11582e-05
1.15767e-05
1.19373e-05
1.22388e-05
1.24841e-05
1.26788e-05
1.28298e-05
1.29442e-05
1.30289e-05
1.30903e-05
1.31336e-05
1.31632e-05
1.31824e-05
1.31934e-05
1.31976e-05
1.31951e-05
1.31851e-05
1.31652e-05
1.31318e-05
1.30792e-05
1.29994e-05
1.28823e-05
1.27148e-05
1.24816e-05
1.21651e-05
1.17467e-05
1.12083e-05
1.05339e-05
9.711e-06
8.73339e-06
7.61744e-06
6.38724e-06
5.08487e-06
3.78412e-06
2.57958e-06
1.57017e-06
8.27341e-07
3.62663e-07
1.24719e-07
3.0385e-08
4.2692e-09
2.1544e-10
1.26354e-12
4.42583e-06
4.62998e-06
4.88189e-06
5.19738e-06
5.55019e-06
5.91105e-06
6.25762e-06
6.57474e-06
6.85379e-06
7.09139e-06
7.28803e-06
7.44666e-06
7.57165e-06
7.66799e-06
7.74066e-06
7.79432e-06
7.8331e-06
7.86045e-06
7.87916e-06
7.89137e-06
7.89857e-06
7.90159e-06
7.90066e-06
7.8953e-06
7.88428e-06
7.86545e-06
7.83558e-06
7.79021e-06
7.7235e-06
7.62813e-06
7.49544e-06
7.31557e-06
7.07802e-06
6.77261e-06
6.39085e-06
5.9264e-06
5.37452e-06
4.74014e-06
4.03506e-06
3.27877e-06
2.50521e-06
1.7633e-06
1.1123e-06
6.07001e-07
2.73959e-07
9.61096e-08
2.36675e-08
3.33949e-09
1.68652e-10
9.88578e-13
2.17981e-06
2.29488e-06
2.45929e-06
2.66602e-06
2.89142e-06
3.11673e-06
3.32874e-06
3.51931e-06
3.68448e-06
3.82336e-06
3.93712e-06
4.02814e-06
4.09939e-06
4.15402e-06
4.19507e-06
4.2253e-06
4.24711e-06
4.26248e-06
4.27302e-06
4.27993e-06
4.28407e-06
4.28593e-06
4.28566e-06
4.28304e-06
4.27744e-06
4.26774e-06
4.25226e-06
4.22867e-06
4.19393e-06
4.14426e-06
4.07518e-06
3.98167e-06
3.85835e-06
3.69998e-06
3.50221e-06
3.26228e-06
2.97815e-06
2.65126e-06
2.28676e-06
1.89321e-06
1.48455e-06
1.08151e-06
7.1187e-07
4.0717e-07
1.92073e-07
6.96896e-08
1.75028e-08
2.4901e-09
1.25989e-10
7.38106e-13
9.23809e-07
9.92767e-07
1.0925e-06
1.21233e-06
1.33842e-06
1.46091e-06
1.57346e-06
1.67268e-06
1.75734e-06
1.82768e-06
1.88476e-06
1.9301e-06
1.96541e-06
1.99238e-06
2.01258e-06
2.02742e-06
2.03812e-06
2.04566e-06
2.05083e-06
2.05424e-06
2.05631e-06
2.05728e-06
2.05724e-06
2.05609e-06
2.05355e-06
2.04909e-06
2.04193e-06
2.03099e-06
2.01484e-06
1.99173e-06
1.95958e-06
1.91608e-06
1.85881e-06
1.78536e-06
1.69369e-06
1.58267e-06
1.45168e-06
1.30135e-06
1.13391e-06
9.53065e-07
7.64288e-07
5.75211e-07
3.96075e-07
2.39882e-07
1.20501e-07
4.62302e-08
1.20489e-08
1.74312e-09
8.85557e-11
5.18625e-13
3.22951e-07
3.61722e-07
4.14089e-07
4.72821e-07
5.32024e-07
5.87676e-07
6.37516e-07
6.80608e-07
7.16858e-07
7.46661e-07
7.70666e-07
7.89635e-07
8.04347e-07
8.15551e-07
8.23929e-07
8.30077e-07
8.34503e-07
8.37624e-07
8.3977e-07
8.41188e-07
8.42056e-07
8.42479e-07
8.42492e-07
8.4206e-07
8.41068e-07
8.39308e-07
8.36467e-07
8.32107e-07
8.25659e-07
8.16413e-07
8.03536e-07
7.86108e-07
7.63173e-07
7.33796e-07
6.97162e-07
6.5282e-07
6.00631e-07
5.4091e-07
4.74587e-07
4.03174e-07
3.28766e-07
2.54026e-07
1.82186e-07
1.17167e-07
6.37267e-08
2.66657e-08
7.45376e-09
1.11848e-09
5.73702e-11
3.35901e-13
8.70968e-08
1.05336e-07
1.26871e-07
1.49537e-07
1.71349e-07
1.91152e-07
2.08453e-07
2.23158e-07
2.35389e-07
2.45369e-07
2.53367e-07
2.59665e-07
2.64537e-07
2.68242e-07
2.71009e-07
2.73038e-07
2.74499e-07
2.75529e-07
2.76238e-07
2.76709e-07
2.76999e-07
2.77144e-07
2.77156e-07
2.77025e-07
2.76713e-07
2.76152e-07
2.75242e-07
2.73839e-07
2.71759e-07
2.6877e-07
2.64601e-07
2.58952e-07
2.51513e-07
2.4199e-07
2.3012e-07
2.15754e-07
1.98865e-07
1.79576e-07
1.58207e-07
1.35275e-07
1.11478e-07
8.76662e-08
6.47885e-08
4.38425e-08
2.58914e-08
1.21698e-08
3.85404e-09
6.29248e-10
3.31624e-11
1.94251e-13
1.62105e-08
2.22075e-08
2.84471e-08
3.45831e-08
4.02062e-08
4.51474e-08
4.93778e-08
5.29307e-08
5.58645e-08
5.82478e-08
6.01524e-08
6.16493e-08
6.2806e-08
6.36847e-08
6.43405e-08
6.48213e-08
6.51674e-08
6.54117e-08
6.558e-08
6.5692e-08
6.57615e-08
6.57973e-08
6.5802e-08
6.57731e-08
6.5702e-08
6.55729e-08
6.53618e-08
6.5035e-08
6.45488e-08
6.38485e-08
6.287e-08
6.15416e-08
5.97904e-08
5.75477e-08
5.47527e-08
5.13691e-08
4.73923e-08
4.28548e-08
3.78346e-08
3.24581e-08
2.68955e-08
2.13527e-08
1.60546e-08
1.12241e-08
7.05992e-09
3.73143e-09
1.41872e-09
2.79315e-10
1.60817e-11
9.50673e-14
1.71298e-09
2.79371e-09
3.81121e-09
4.7424e-09
5.55869e-09
6.25919e-09
6.85182e-09
7.3465e-09
7.75363e-09
8.08369e-09
8.34712e-09
8.55396e-09
8.71369e-09
8.83494e-09
8.92541e-09
8.99173e-09
9.03947e-09
9.07317e-09
9.09641e-09
9.11194e-09
9.12164e-09
9.12674e-09
9.12761e-09
9.12392e-09
9.11449e-09
9.09713e-09
9.06851e-09
9.02397e-09
8.9574e-09
8.86125e-09
8.7266e-09
8.54346e-09
8.30159e-09
7.99155e-09
7.60505e-09
7.13697e-09
6.58676e-09
5.95916e-09
5.26527e-09
4.52285e-09
3.75592e-09
2.99344e-09
2.26702e-09
1.60805e-09
1.04406e-09
5.94767e-10
2.69129e-10
7.26783e-11