/*--------------------------------*- C++ -*----------------------------------*\
| =========                 |                                                 |
| \\      /  F ield         | foam-extend: Open Source CFD                    |
|  \\    /   O peration     | Version:     4.0                                |
|   \\  /    A nd           | Web:         http://www.foam-extend.org         |
|    \\/     M anipulation  |                                                 |
\*---------------------------------------------------------------------------*/
FoamFile
{
    version     2.0;
    format      ascii;
    class       volScalarField;
    location    "0.0004";
    object      omega;
}
// * * * * * * * * * * * * * * * * * * * * * * * * * * * * * * * * * * * * * //

dimensions      [0 0 -1 0 0 0 0];

internalField   nonuniform List<scalar> 
28770
(
1.87595e+07
1.87595e+07
1.87595e+07
1.87595e+07
1.87595e+07
1.87595e+07
1.87595e+07
1.87595e+07
1.87595e+07
1.87595e+07
1.87595e+07
1.87595e+07
1.87595e+07
1.87595e+07
1.87595e+07
1.87595e+07
1.87595e+07
1.87595e+07
1.87595e+07
1.87595e+07
1.87595e+07
1.87595e+07
1.87595e+07
1.87595e+07
1.87595e+07
1.87595e+07
1.87595e+07
1.87595e+07
1.87595e+07
1.87595e+07
1.87595e+07
1.87595e+07
1.87595e+07
1.87595e+07
1.87595e+07
1.87595e+07
1.87595e+07
1.87595e+07
1.87595e+07
1.87595e+07
1.87595e+07
1.87595e+07
1.87595e+07
1.87595e+07
1.87595e+07
1.87595e+07
1.87595e+07
1.87595e+07
1.87595e+07
1.87595e+07
2.70016e+06
3.18574e+06
3.23008e+06
3.23475e+06
3.23538e+06
3.23549e+06
3.23552e+06
3.23553e+06
3.23554e+06
3.23554e+06
3.23554e+06
3.23554e+06
3.23554e+06
3.23554e+06
3.23554e+06
3.23554e+06
3.23554e+06
3.23554e+06
3.23554e+06
3.23554e+06
3.23554e+06
3.23554e+06
3.23554e+06
3.23554e+06
3.23554e+06
3.23554e+06
3.23554e+06
3.23554e+06
3.23554e+06
3.23555e+06
3.23555e+06
3.23555e+06
3.23555e+06
3.23555e+06
3.23555e+06
3.23555e+06
3.23556e+06
3.23556e+06
3.23556e+06
3.23557e+06
3.23558e+06
3.23561e+06
3.23567e+06
3.23585e+06
3.23644e+06
3.23892e+06
3.25306e+06
3.36211e+06
4.43127e+06
1.79872e+07
679444
1.01714e+06
1.08474e+06
1.09848e+06
1.10156e+06
1.10235e+06
1.10259e+06
1.10267e+06
1.1027e+06
1.10272e+06
1.10272e+06
1.10273e+06
1.10273e+06
1.10273e+06
1.10273e+06
1.10273e+06
1.10273e+06
1.10273e+06
1.10273e+06
1.10273e+06
1.10273e+06
1.10273e+06
1.10273e+06
1.10273e+06
1.10273e+06
1.10273e+06
1.10273e+06
1.10273e+06
1.10273e+06
1.10273e+06
1.10274e+06
1.10274e+06
1.10274e+06
1.10274e+06
1.10275e+06
1.10275e+06
1.10276e+06
1.10278e+06
1.10281e+06
1.10286e+06
1.10297e+06
1.10322e+06
1.10379e+06
1.1053e+06
1.1099e+06
1.12603e+06
1.19191e+06
1.50335e+06
3.24976e+06
1.79872e+07
228640
431025
496287
516092
522243
524278
525008
525295
525417
525473
525501
525515
525523
525528
525530
525532
525533
525533
525534
525534
525534
525535
525535
525535
525535
525536
525537
525538
525539
525541
525544
525548
525554
525564
525580
525605
525646
525716
525841
526071
526522
527460
529561
534661
548176
587435
712735
1.16002e+06
3.1232e+06
1.79872e+07
96159.2
214111
266555
287572
295824
299131
300512
301120
301403
301542
301613
301652
301673
301686
301693
301697
301700
301702
301703
301704
301704
301705
301705
301706
301706
301707
301709
301711
301714
301719
301726
301737
301755
301782
301826
301895
302009
302202
302536
303140
304279
306532
311241
321669
346212
407823
574734
1.08478e+06
3.10622e+06
1.79872e+07
48002.9
118672
157855
177086
186101
190300
192289
193257
193746
194001
194140
194218
194262
194289
194304
194314
194320
194324
194326
194328
194329
194330
194331
194332
194333
194335
194338
194342
194349
194359
194375
194399
194437
194496
194590
194739
194981
195381
196060
197249
199400
203442
211350
227497
262033
340011
530313
1.06585e+06
3.1032e+06
1.79872e+07
27245.8
71473.3
100176
116524
125309
129927
132353
133643
134344
134733
134954
135083
135160
135206
135234
135252
135263
135270
135274
135277
135279
135281
135283
135284
135287
135290
135295
135303
135315
135334
135363
135408
135477
135585
135754
136020
136445
137135
138277
140212
143575
149593
160697
181901
224037
312401
514675
1.06036e+06
3.10249e+06
1.79872e+07
17068.9
46209.1
67197.3
80589.4
88605.9
93254.6
95919.3
97448.4
98333.9
98853.5
99163.1
99350.3
99465.1
99536.2
99580.8
99608.8
99626.5
99637.9
99645.1
99649.9
99653.3
99655.9
99658.3
99661.1
99664.8
99670.2
99678.4
99691.1
99710.9
99741.4
99788.5
99861.2
99973.2
100146
100413
100830
101484
102525
104204
106961
111580
119493
133397
158565
205931
300439
508670
1.05853e+06
3.10227e+06
1.79872e+07
11580.4
31739.3
47279.5
58101.1
65156.1
69589.1
72322.7
73996.9
75023.3
75656
76049
76295.2
76450.6
76549.3
76612.4
76652.7
76678.6
76695.2
76706.1
76713.2
76718.2
76722.1
76725.7
76729.8
76735.3
76743.3
76755.6
76774.5
76803.8
76849.1
76918.8
77025.6
77189.2
77439.5
77822.9
78412.2
79323.2
80743.3
82980.6
86552.5
92344
101908
118055
146107
196882
294926
506149
1.05782e+06
3.10219e+06
1.79872e+07
8415.73
23008.1
34742.3
43495.5
49600.2
53693.9
56377
58114.3
59233.5
59954.1
60418.9
60719.5
60914.5
61041.3
61123.7
61177.3
61212.2
61234.9
61249.7
61259.6
61266.5
61271.9
61277
61282.7
61290.3
61301.5
61318.5
61344.7
61385.1
61447.4
61542.7
61688.2
61909.3
62244.7
62753
63524.3
64698.2
66494.8
69264.9
73579
80382.3
91283.2
109120
139174
192109
292187
504970
1.05751e+06
3.10216e+06
1.79872e+07
6509.6
17550.1
26652.7
33772.1
39024.8
42739.5
45301.4
47040.3
48209.4
48991.3
49512.7
49859.9
50090.6
50243.7
50345.1
50412
50456.1
50485.1
50504.2
50517.1
50526.1
50533.2
50539.8
50547.4
50557.4
50572.1
50594.3
50628.5
50681
50761.4
50884.1
51070.1
51350.8
51772.8
52405.9
53354.9
54778.8
56922.1
60165
65109.9
72730.9
84651.9
103697
135087
189363
290624
504276
1.05731e+06
3.10213e+06
1.79872e+07
5328.26
14047.9
21331.7
27186.6
31719.9
35068.3
37476.6
39177.2
40362.9
41182.2
41744.6
42128.7
42389.6
42566
42684.7
42764.2
42817.1
42852.2
42875.6
42891.5
42902.8
42911.7
42920
42929.4
42942
42960.4
42988.1
43030.4
43095.3
43194.2
43344.1
43570
43908.5
44413.3
45163.1
46274.5
47920.8
50363
53999
59446.5
67687.4
80336.8
100189
132408
187460
289375
503539
1.05696e+06
3.10205e+06
1.79872e+07
4583.48
11762.9
17786.3
22691.4
26623.4
29647.1
31896.1
33536.7
34715.9
35553.7
36143.2
36554.6
36839.5
37035.4
37169
37259.6
37320.6
37361.5
37389
37407.8
37421.2
37431.9
37441.9
37453.4
37468.6
37490.6
37523.7
37574.1
37650.9
37767.4
37943.1
38206.3
38597.9
39177.1
40029.8
41280.9
43113
45796.8
49738.2
55558.5
64233.3
77349.4
97661.5
130276
185601
287653
501924
1.05568e+06
3.1015e+06
1.79872e+07
4109.14
10253.4
15397.8
19624.2
23059.7
25801.6
27899.9
29472.3
30631.2
31473.7
32079
32509.4
32812.3
33023.6
33169.6
33269.6
33337.6
33383.6
33414.8
33436.3
33451.8
33464.2
33475.9
33489.3
33507
33532.6
33570.8
33628.8
33716.7
33849.3
34048.2
34344.4
34782.1
35424.9
36363.4
37727.7
39705.6
42571
46730.5
52801.2
61747.1
75092.3
95538.6
128095
183034
284223
497138
1.04964e+06
3.09629e+06
1.79872e+07
3805.58
9247.8
13778.9
17520.7
20572.4
23068
25035.6
26540.9
27672.8
28511.3
29124.2
29566.7
29882.5
30105.4
30261.2
30368.9
30442.7
30493.1
30527.5
30551.4
30568.8
30582.8
30596.1
30611.3
30631.4
30660.3
30703.2
30768
30865.7
31012.5
31231.4
31555.4
32031.4
32725.7
33731.9
35182.8
37267.2
40257.4
44552.4
50758.2
59860.6
73213.7
93480.7
125463
179008
277051
482977
1.02054e+06
3.04092e+06
1.79872e+07
3611.18
8573.91
12676.5
16070.8
18848.1
21133.5
22986.7
24430.2
25533.6
26363.4
26978.3
27427.9
27752.4
27983.8
28147
28260.7
28339.3
28393.3
28430.4
28456.4
28475.4
28490.9
28505.7
28522.6
28544.9
28576.7
28623.8
28694.5
28800.7
28959.3
29194.6
29541.2
30047.5
30781.5
31838.3
33351.3
35507.9
38573.9
42930
49124.6
55522.9
68199.2
86184.1
114040
159449
239390
397260
770901
2.00893e+06
1.20424e+07
3486.96
8120.59
11923.3
15069.4
17651.3
19771.7
21523.2
22915.4
23992.2
24811.4
25425.2
25878.4
26208.5
26445.9
26614.5
26732.8
26815.1
26872
26911.3
26939
26959.6
26976.4
26992.5
27010.9
27035.1
27069.5
27120.3
27195.9
27309
27477.1
27725.5
28089.5
28618.6
29381.7
30474.2
32029
34231.2
37341.4
41732.3
47950.3
54352.4
66778.6
84427.7
111540
155393
232077
383276
747063
2.01435e+06
1.24057e+07
3407.9
7815.06
11408.1
14377.6
16819.7
18821.9
20485.5
21833.8
22887
23695.7
24306.6
24761.3
25094.9
25336.3
25508.8
25630.6
25715.7
25774.9
25816
25845.2
25866.9
25884.9
25902.2
25922
25947.9
25984.5
26038.2
26117.9
26236.5
26412.1
26670.3
27047.2
27592.6
28375.6
29491.4
31071.7
33298.8
36428.3
40824.6
47019.7
53404.8
65575.9
82896.6
109360
151991
226524
373667
730701
1.98891e+06
1.23852e+07
3357.79
7609.03
11055.6
13900.1
16241.4
18160.7
19754.3
21064.9
22099.2
22898.6
23506.3
23961.3
24296.9
24541
24716.2
24840.5
24927.8
24988.6
25031.2
25061.6
25084.3
25103.2
25121.6
25142.6
25169.9
25208.4
25264.5
25347.4
25470.2
25651.4
25916.8
26302.6
26858.8
27654.4
28783.9
30377.1
32613.7
35744.3
40125
46274.9
52622.5
64554.4
81566
107446
148869
233759
388358
766468
2.12102e+06
1.69429e+07
3326.12
7470.26
10815.1
13571.6
15841.2
17702.8
19242.9
20521.1
21541.5
22333.5
22938.3
23392.9
23729.7
23975.6
24152.7
24278.8
24367.6
24429.8
24473.5
24504.8
24528.4
24548.1
24567.3
24589.3
24617.9
24657.8
24715.9
24801.3
24927.2
25112.3
25382.6
25774.3
26337.2
27139.7
28275.5
29872.6
32107.7
35226.7
39578.3
45669.8
51965.1
63675.7
80403.5
105790
146345
229320
379648
745934
2.0743e+06
1.69163e+07
3306.06
7377.07
10651.7
13346.9
15566.1
17387.4
18889.2
20141.2
21150.6
21936.9
22539.2
22993.5
23330.9
23577.9
23756.4
23883.7
23973.7
24036.9
24081.4
24113.4
24137.7
24158.2
24178.1
24200.9
24230.4
24271.6
24331.1
24418.4
24546.6
24734.4
25007.8
25402.9
25969.3
26774.8
27911.8
29506.7
31733.1
34832.4
39146.3
45170.9
51402.5
62903.3
79360.8
104311
144162
225790
374109
737914
2.06706e+06
1.69157e+07
3293.26
7314.91
10541.7
13195
15379.3
17172.3
18647.4
19879.4
20880.4
21662.6
22263.2
22717
23054.9
23302.7
23482
23610.3
23701
23764.9
23810.1
23842.7
23867.6
23888.5
23909.1
23932.6
23962.9
24005
24065.6
24154.2
24283.9
24473.5
24748.8
25145.7
25713.4
26519.1
27654.2
29243.2
31457
34532.4
38804.1
44757.1
50918.1
62207.8
78381.4
102869
141958
221954
367444
724024
2.02473e+06
1.67948e+07
3284.98
7274.1
10469.2
13094.4
15255.3
17029.2
18486.3
19702.9
20697.4
21477.4
22077
22530.7
22868.8
23117.2
23297.2
23426
23517.3
23581.8
23627.4
23660.4
23685.7
23707.1
23728.1
23752.1
23783
23825.8
23887.3
23976.7
24107.5
24298.1
24574.3
24972
25539.8
26344.4
27476
29057.7
31257.7
34308.6
38538.3
44420.3
50512.1
61579.2
77437.6
101366
139430
216837
357124
696983
2.07581e+06
1.19266e+07
3279.62
7248.4
10423.6
13031.1
15177.2
16938.9
18384.8
19589.3
20579.1
21358.5
21957.9
22411.7
22750.1
22998.8
23179.2
23308.4
23400.1
23464.9
23510.8
23544.1
23569.7
23591.4
23612.7
23637.1
23668.5
23711.7
23773.7
23863.8
23995.2
24186.3
24463.1
24860.8
25428.2
26231.1
27359.3
28934.1
31121.8
34151.5
38344.8
44164.6
50201.7
61040
76567.4
99848.6
136565
210109
341663
659149
1.98869e+06
1.18238e+07
3276.33
7233.9
10398.1
12995.8
15133.6
16888.7
18328.4
19524.3
20511
21291
21890.6
22344.5
22683.1
22932
23112.6
23242.1
23334
23399
23445.1
23478.6
23504.4
23526.3
23547.8
23572.4
23604
23647.6
23709.9
23800.3
23932
24123.4
24400.3
24798
25364.9
26166.5
27292
28862
31041.1
34056
38224
43999.9
50011.8
60641.7
75883
98555
133853
202866
320821
584596
1.29237e+06
5.51313e+06
3275
7229.15
10390
12984.6
15119.8
16873
18310.9
19502.6
20488.3
21269
21868.9
22322.9
22661.5
22910.5
23091.2
23220.8
23312.8
23377.8
23424
23457.5
23483.3
23505.3
23526.9
23551.6
23583.3
23627
23689.4
23779.9
23911.7
24103.2
24380.2
24777.8
25344.4
26145.6
27270.1
28838.3
31014.3
34023.9
38182.7
43942.5
49972.8
60451.2
75542.3
97876.7
132326
198881
307433
524806
967339
1.97658e+06
3275.83
7233.72
10398.2
12996.1
15134
16889.1
18328.8
19524.6
20511.3
21291.2
21890.8
22344.8
22683.3
22932.2
23112.8
23242.3
23334.2
23399.2
23445.3
23478.8
23504.5
23526.4
23548
23572.6
23604.2
23647.8
23710.1
23800.5
23932.2
24123.6
24400.5
24798.2
25365
26166.6
27292.1
28862.1
31041.1
34056
38224
43999.8
50091.4
60515.8
75659
98111.8
132863
201375
315947
563643
1.2305e+06
4.58388e+06
3278.77
7248.06
10423.8
13031.6
15177.8
16939.7
18385.5
19589.9
20579.6
21359
21958.4
22412.1
22750.4
22999.1
23179.4
23308.7
23400.4
23465.1
23511.1
23544.4
23570
23591.7
23613
23637.4
23668.8
23712.1
23774
23864.1
23995.5
24186.6
24463.3
24861.1
25428.4
26231.3
27359.4
28934.2
31121.8
34151.3
38344.6
44164.4
50345.9
60819.6
76193.5
99153.3
135139
208257
336763
644181
1.64013e+06
1.17255e+07
3284
7273.7
10469.4
13095
15256.2
17030.1
18487.2
19703.6
20698.1
21478
22077.5
22531.2
22869.2
23117.5
23297.5
23426.3
23517.6
23582
23627.7
23660.7
23686
23707.4
23728.4
23752.4
23783.3
23826.2
23887.6
23977.1
24107.8
24298.4
24574.6
24972.2
25540
26344.5
27476
29057.6
31257.5
34308.3
38537.9
44420
50707.4
61295.5
76987.6
100599
138023
215305
353850
689682
1.75023e+06
1.19207e+07
3292.22
7314.55
10542.1
13195.8
15380.4
17173.5
18648.5
19880.3
20881.2
21663.3
22263.8
22717.5
23055.2
23303
23482.3
23610.5
23701.3
23765.2
23810.4
23843
23867.9
23888.9
23909.4
23932.9
23963.2
24005.4
24066
24154.6
24284.3
24473.8
24749.1
25145.9
25713.6
26519.2
27654.1
29243
31456.6
34531.9
38803.5
44756.6
51153.7
61884.3
77904.4
102126
140744
220823
365237
718031
1.994e+06
1.63319e+07
3305.28
7377.03
10652.3
13348.1
15567.5
17388.8
18890.5
20142.3
21151.6
21937.7
22539.9
22994
23331.3
23578.3
23756.7
23884
23974
24037.2
24081.7
24113.7
24138.1
24158.5
24178.5
24201.3
24230.8
24272
24331.6
24418.8
24547
24734.7
25008.1
25403.1
25969.4
26774.7
27911.5
29506.3
31732.5
34831.7
39145.6
45170.4
51676
62547
78865.9
103593
143086
224909
372699
735574
2.06339e+06
1.69146e+07
3326.02
7470.97
10816.4
13573.3
15843.1
17704.7
19244.6
20522.5
21542.7
22334.5
22939
23393.5
23730.2
23976
24153.1
24279.1
24367.9
24430.1
24473.8
24505.1
24528.8
24548.5
24567.8
24589.8
24618.3
24658.3
24716.3
24801.7
24927.7
25112.7
25382.9
25774.5
26337.2
27139.5
28275.1
29872
32106.9
35225.8
39577.5
45669.3
52282.7
63278.2
79870.7
105037
145233
228398
378134
743608
2.07224e+06
1.69162e+07
3358.9
7611.02
11058.1
13902.7
16243.9
18163
19756.3
21066.5
22100.6
22899.7
23507.2
23962
24297.4
24541.5
24716.6
24840.9
24928.2
24989.1
25031.6
25062
25084.8
25103.7
25122.1
25143.1
25170.4
25208.9
25265
25347.9
25470.7
25651.8
25917.1
26302.7
26858.8
27654.1
28783.3
30376.2
32612.5
35743
40123.9
46274.2
52998.1
64099.4
80966.1
106588
147544
232519
385689
758841
2.09679e+06
1.69198e+07
3410.83
7818.95
11412.1
14381.5
16823.1
18824.8
20487.9
21835.7
22888.7
23697
24307.7
24762.1
25095.6
25336.9
25509.3
25631.1
25716.2
25775.4
25816.5
25845.7
25867.5
25885.4
25902.8
25922.6
25948.5
25985.1
26038.8
26118.5
26237
26412.5
26670.7
27047.3
27592.5
28375.1
29490.6
31070.5
33297.2
36426.6
40823.1
47018.9
53856.8
65044.7
82208.2
108372
150414
224010
368318
716147
1.93335e+06
1.21639e+07
3492.34
8127.02
11929.4
15074.7
17655.7
19775.2
21526
22917.7
23994.1
24812.9
25426.3
25879.3
26209.2
26446.5
26615
26733.4
26815.7
26872.6
26911.9
26939.7
26960.2
26977
26993.2
27011.6
27035.9
27070.3
27121
27196.6
27309.6
27477.7
27725.9
28089.7
28618.5
29381.1
30473.2
32027.5
34229.3
37339.5
41730.7
47949.5
54906.8
66151.9
83635.1
110413
153633
229183
378450
739987
2.00777e+06
1.24058e+07
3619.56
8583.4
12684.9
16077.7
18853.5
21137.5
22989.9
24432.8
25535.7
26365
26979.6
27428.9
27753.2
27984.5
28147.6
28261.4
28340
28394
28431.1
28457.1
28476.2
28491.7
28506.5
28523.4
28545.7
28577.5
28624.6
28695.3
28801.3
28959.8
29195
29541.3
30047.2
30780.8
31837.2
33349.7
35505.9
38571.9
42928.6
49123.9
56234.5
67460.1
85277.8
112750
157326
235423
389176
755762
2.01699e+06
1.23779e+07
3817.36
9260.66
13789.8
17529.1
20578.5
23072.5
25039.2
26543.7
27675.1
28513.1
29125.6
29567.8
29883.4
30106.2
30261.9
30369.6
30443.5
30493.9
30528.3
30552.2
30569.6
30583.6
30597
30612.2
30632.3
30661.2
30704.1
30768.8
30866.5
31013.1
31231.8
31555.5
32031.1
32725
33730.7
35181.1
37265.2
40255.4
44551.1
50757.8
59860.2
73213.2
93480.6
125463
179008
277050
482977
1.02054e+06
3.04092e+06
1.79872e+07
4124.41
10269.5
15410.8
19633.6
23066.2
25806.4
27903.6
29475.2
30633.5
31475.5
32080.4
32510.4
32813.2
33024.4
33170.3
33270.3
33338.3
33384.4
33415.6
33437.1
33452.6
33465.1
33476.8
33490.2
33507.9
33533.4
33571.7
33629.6
33717.4
33849.9
34048.6
34344.4
34781.8
35424.1
36362.1
37726
39703.5
42568.9
46728.8
52800.3
61746.6
75091.9
95538.5
128095
183034
284223
497138
1.04964e+06
3.09629e+06
1.79872e+07
4601.93
11781.6
17800.6
22700.9
26629.9
29651.8
31899.6
33539.5
34718.1
35555.3
36144.5
36555.6
36840.4
37036.1
37169.7
37260.3
37321.3
37362.2
37389.7
37408.5
37422
37432.7
37442.8
37454.2
37469.4
37491.4
37524.5
37574.8
37651.5
37767.9
37943.4
38206.3
38597.5
39176.3
40028.5
41279.2
43111
45794.6
49736.1
55557
64232.3
77348.9
97661.3
130276
185601
287653
501924
1.05568e+06
3.1015e+06
1.79872e+07
5349.08
14068
21345.9
27195.3
31725.9
35072.6
37479.8
39179.6
40364.7
41183.7
41745.8
42129.6
42390.3
42566.7
42685.4
42764.8
42817.7
42852.9
42876.3
42892.2
42903.5
42912.4
42920.7
42930.2
42942.8
42961.1
42988.7
43031
43095.8
43194.5
43344.2
43569.9
43908.1
44412.5
45161.9
46272.9
47918.8
50360.8
53996.9
59444.6
67686
80335.9
100188
132408
187460
289375
503539
1.05696e+06
3.10205e+06
1.79872e+07
6531.51
17569.9
26665.4
33779.5
39029.7
42743
45303.9
47042.2
48210.9
48992.4
49513.6
49860.6
50091.2
50244.3
50345.6
50412.5
50456.6
50485.6
50504.7
50517.6
50526.7
50533.8
50540.4
50547.9
50558
50572.6
50594.8
50628.9
50681.3
50761.6
50884.1
51069.9
51350.3
51772.1
52404.8
53353.4
54777
56920
60162.9
65107.9
72729.3
84650.7
103696
135086
189363
290624
504276
1.05731e+06
3.10213e+06
1.79872e+07
8437
23025.4
34750.5
43500.4
49603.5
53696.2
56378.7
58115.5
59234.4
59954.8
60419.4
60720
60914.9
61041.6
61124
61177.7
61212.5
61235.2
61250.1
61260
61266.9
61272.3
61277.4
61283.1
61290.7
61301.8
61318.8
61344.9
61385.3
61447.4
61542.6
61687.9
61908.9
62244
62752.1
63523.1
64696.8
66493.1
69263
73577.1
80380.6
91281.9
109119
139174
192109
292187
504970
1.05751e+06
3.10216e+06
1.79872e+07
11599.2
31752.3
47285.1
58104.2
65158
69590.3
72323.5
73997.5
75023.8
75656.3
76049.3
76295.4
76450.8
76549.5
76612.5
76652.9
76678.7
76695.4
76706.2
76713.4
76718.4
76722.3
76725.9
76730
76735.5
76743.5
76755.7
76774.6
76803.8
76849
76918.6
77025.3
77188.8
77439
77822.2
78411.3
79322.1
80742
82979.2
86551
92342.5
101907
118054
146107
196882
294926
506149
1.05782e+06
3.10219e+06
1.79872e+07
17083.6
46216
67200
80590.6
88606.4
93254.9
95919.4
97448.5
98333.9
98853.6
99163.1
99350.4
99465.1
99536.3
99580.8
99608.8
99626.6
99637.9
99645.2
99650
99653.3
99655.9
99658.3
99661.1
99664.8
99670.2
99678.4
99691.1
99710.7
99741.2
99788.3
99860.9
99972.8
100146
100413
100829
101483
102524
104203
106960
111579
119492
133396
158564
205931
300439
508670
1.05853e+06
3.10227e+06
1.79872e+07
27255.1
71469.5
100175
116523
125309
129926
132352
133643
134343
134733
134954
135083
135160
135206
135234
135252
135263
135270
135274
135277
135279
135281
135282
135284
135286
135290
135295
135303
135315
135333
135362
135407
135477
135585
135754
136020
136445
137135
138277
140212
143575
149592
160697
181901
224036
312401
514675
1.06036e+06
3.10249e+06
1.79872e+07
48008.8
118672
157854
177085
186100
190300
192288
193257
193745
194001
194140
194217
194262
194288
194304
194314
194320
194324
194326
194328
194329
194330
194331
194332
194333
194335
194338
194342
194348
194359
194374
194399
194437
194496
194590
194739
194980
195381
196060
197249
199400
203442
211349
227497
262033
340011
530313
1.06585e+06
3.1032e+06
1.79872e+07
96162.2
214111
266554
287571
295823
299130
300511
301120
301402
301541
301613
301651
301673
301685
301693
301697
301700
301702
301703
301703
301704
301704
301705
301705
301706
301707
301708
301711
301714
301719
301726
301737
301755
301782
301825
301895
302009
302202
302536
303140
304279
306532
311241
321669
346212
407823
574734
1.08478e+06
3.10622e+06
1.79872e+07
228641
431025
496287
516091
522243
524277
525008
525295
525417
525473
525501
525515
525523
525527
525530
525532
525533
525533
525534
525534
525534
525534
525535
525535
525535
525536
525536
525537
525539
525541
525543
525548
525554
525564
525580
525605
525646
525716
525841
526071
526522
527461
529562
534661
548176
587435
712735
1.16002e+06
3.1232e+06
1.79872e+07
679444
1.01714e+06
1.08474e+06
1.09848e+06
1.10156e+06
1.10235e+06
1.10259e+06
1.10267e+06
1.1027e+06
1.10272e+06
1.10272e+06
1.10273e+06
1.10273e+06
1.10273e+06
1.10273e+06
1.10273e+06
1.10273e+06
1.10273e+06
1.10273e+06
1.10273e+06
1.10273e+06
1.10273e+06
1.10273e+06
1.10273e+06
1.10273e+06
1.10273e+06
1.10273e+06
1.10273e+06
1.10273e+06
1.10273e+06
1.10274e+06
1.10274e+06
1.10274e+06
1.10274e+06
1.10275e+06
1.10275e+06
1.10276e+06
1.10278e+06
1.10281e+06
1.10286e+06
1.10297e+06
1.10322e+06
1.10379e+06
1.1053e+06
1.1099e+06
1.12603e+06
1.19191e+06
1.50335e+06
3.24976e+06
1.79872e+07
2.70016e+06
3.18574e+06
3.23008e+06
3.23475e+06
3.23538e+06
3.23549e+06
3.23552e+06
3.23553e+06
3.23554e+06
3.23554e+06
3.23554e+06
3.23554e+06
3.23554e+06
3.23554e+06
3.23554e+06
3.23554e+06
3.23554e+06
3.23554e+06
3.23554e+06
3.23554e+06
3.23554e+06
3.23554e+06
3.23554e+06
3.23554e+06
3.23554e+06
3.23554e+06
3.23554e+06
3.23554e+06
3.23554e+06
3.23555e+06
3.23555e+06
3.23555e+06
3.23555e+06
3.23555e+06
3.23555e+06
3.23555e+06
3.23556e+06
3.23556e+06
3.23556e+06
3.23557e+06
3.23558e+06
3.23561e+06
3.23567e+06
3.23585e+06
3.23644e+06
3.23892e+06
3.25306e+06
3.36211e+06
4.43127e+06
1.79872e+07
1.87595e+07
1.87595e+07
1.87595e+07
1.87595e+07
1.87595e+07
1.87595e+07
1.87595e+07
1.87595e+07
1.87595e+07
1.87595e+07
1.87595e+07
1.87595e+07
1.87595e+07
1.87595e+07
1.87595e+07
1.87595e+07
1.87595e+07
1.87595e+07
1.87595e+07
1.87595e+07
1.87595e+07
1.87595e+07
1.87595e+07
1.87595e+07
1.87595e+07
1.87595e+07
1.87595e+07
1.87595e+07
1.87595e+07
1.87595e+07
1.87595e+07
1.87595e+07
1.87595e+07
1.87595e+07
1.87595e+07
1.87595e+07
1.87595e+07
1.87595e+07
1.87595e+07
1.87595e+07
1.87595e+07
1.87595e+07
1.87595e+07
1.87595e+07
1.87595e+07
1.87595e+07
1.87595e+07
1.87595e+07
1.87595e+07
1.87595e+07
6.64471e+07
6.7666e+07
6.7666e+07
6.766e+07
6.76548e+07
6.77908e+07
6.74876e+07
6.76985e+07
6.77773e+07
6.77449e+07
6.77371e+07
6.77264e+07
6.77003e+07
6.72065e+07
6.76292e+07
6.7662e+07
6.76647e+07
6.76659e+07
6.76664e+07
6.76642e+07
3.10496e+06
3.31599e+06
3.32411e+06
3.31317e+06
3.2938e+06
3.26729e+06
3.26925e+06
3.26883e+06
3.28945e+06
3.27184e+06
3.27287e+06
3.25496e+06
3.27048e+06
3.2725e+06
3.29477e+06
3.32257e+06
3.32442e+06
3.32447e+06
3.32231e+06
3.25286e+06
1.15726e+07
1.19499e+07
1.19517e+07
1.1948e+07
1.19536e+07
1.16741e+07
1.2002e+07
1.17692e+07
1.18351e+07
1.18799e+07
1.1881e+07
1.19478e+07
1.19448e+07
1.20936e+07
1.20485e+07
1.19718e+07
1.1955e+07
1.19525e+07
1.19514e+07
1.19096e+07
1.87595e+07
1.87595e+07
1.87595e+07
1.87595e+07
1.87595e+07
1.87595e+07
1.87595e+07
1.87595e+07
1.87595e+07
1.87595e+07
1.87595e+07
1.87595e+07
1.87595e+07
1.87595e+07
1.87595e+07
1.87595e+07
1.87595e+07
1.87595e+07
1.87595e+07
1.87595e+07
1.87595e+07
1.87595e+07
1.87595e+07
1.87595e+07
1.87595e+07
1.87595e+07
1.87595e+07
1.87595e+07
1.87595e+07
1.87595e+07
1.87595e+07
1.87595e+07
1.87595e+07
1.87595e+07
1.87595e+07
1.87595e+07
1.87595e+07
1.87595e+07
1.87595e+07
1.87595e+07
1.87595e+07
1.87595e+07
1.87595e+07
1.87595e+07
1.87595e+07
1.87595e+07
1.87595e+07
1.87595e+07
1.87595e+07
1.87595e+07
1.87595e+07
1.87595e+07
1.87595e+07
1.87595e+07
1.87595e+07
1.87595e+07
1.87595e+07
1.87595e+07
1.87595e+07
1.87595e+07
1.87595e+07
1.87595e+07
1.87595e+07
1.87595e+07
1.87595e+07
1.87595e+07
1.87595e+07
1.87595e+07
1.87595e+07
1.87595e+07
1.87595e+07
1.87595e+07
1.87595e+07
1.87595e+07
1.87595e+07
1.87595e+07
1.87595e+07
1.87595e+07
1.87595e+07
1.87595e+07
1.87595e+07
1.87595e+07
1.87595e+07
1.87595e+07
1.87595e+07
1.87595e+07
1.87595e+07
1.87595e+07
1.87595e+07
1.87595e+07
1.87595e+07
1.87595e+07
1.87595e+07
1.87595e+07
1.87595e+07
1.87595e+07
1.87595e+07
1.87595e+07
1.87595e+07
1.87595e+07
1.79872e+07
4.43127e+06
3.36208e+06
3.25302e+06
3.23888e+06
3.2364e+06
3.23582e+06
3.23564e+06
3.23558e+06
3.23556e+06
3.23555e+06
3.23554e+06
3.23554e+06
3.23554e+06
3.23554e+06
3.23554e+06
3.23554e+06
3.23554e+06
3.23554e+06
3.23554e+06
3.23554e+06
3.23554e+06
3.23554e+06
3.23554e+06
3.23554e+06
3.23554e+06
3.23554e+06
3.23554e+06
3.23554e+06
3.23554e+06
3.23554e+06
3.23554e+06
3.23554e+06
3.23554e+06
3.23554e+06
3.23554e+06
3.23554e+06
3.23554e+06
3.23554e+06
3.23554e+06
3.23554e+06
3.23554e+06
3.23554e+06
3.23554e+06
3.23554e+06
3.23554e+06
3.23554e+06
3.23554e+06
3.23554e+06
3.23554e+06
3.23554e+06
3.23554e+06
3.23554e+06
3.23554e+06
3.23554e+06
3.23554e+06
3.23554e+06
3.23554e+06
3.23554e+06
3.23554e+06
3.23554e+06
3.23554e+06
3.23554e+06
3.23554e+06
3.23554e+06
3.23554e+06
3.23554e+06
3.23554e+06
3.23554e+06
3.23554e+06
3.23554e+06
3.23554e+06
3.23554e+06
3.23554e+06
3.23554e+06
3.23554e+06
3.23554e+06
3.23554e+06
3.23554e+06
3.23554e+06
3.23554e+06
3.23554e+06
3.23554e+06
3.23554e+06
3.23554e+06
3.23554e+06
3.23554e+06
3.23554e+06
3.23554e+06
3.23554e+06
3.23554e+06
3.23554e+06
3.23554e+06
3.23554e+06
3.23554e+06
3.23554e+06
3.23554e+06
3.23554e+06
3.23554e+06
3.23554e+06
1.79872e+07
3.24979e+06
1.50335e+06
1.1919e+06
1.12601e+06
1.10988e+06
1.10529e+06
1.10377e+06
1.1032e+06
1.10296e+06
1.10285e+06
1.10279e+06
1.10277e+06
1.10275e+06
1.10274e+06
1.10274e+06
1.10273e+06
1.10273e+06
1.10273e+06
1.10273e+06
1.10273e+06
1.10273e+06
1.10273e+06
1.10273e+06
1.10273e+06
1.10273e+06
1.10273e+06
1.10273e+06
1.10273e+06
1.10273e+06
1.10273e+06
1.10273e+06
1.10273e+06
1.10273e+06
1.10273e+06
1.10273e+06
1.10273e+06
1.10273e+06
1.10273e+06
1.10273e+06
1.10273e+06
1.10273e+06
1.10273e+06
1.10273e+06
1.10273e+06
1.10273e+06
1.10273e+06
1.10273e+06
1.10273e+06
1.10273e+06
1.10273e+06
1.10273e+06
1.10273e+06
1.10273e+06
1.10273e+06
1.10273e+06
1.10273e+06
1.10273e+06
1.10273e+06
1.10273e+06
1.10273e+06
1.10273e+06
1.10273e+06
1.10273e+06
1.10273e+06
1.10273e+06
1.10273e+06
1.10273e+06
1.10273e+06
1.10273e+06
1.10273e+06
1.10273e+06
1.10273e+06
1.10273e+06
1.10273e+06
1.10273e+06
1.10273e+06
1.10273e+06
1.10273e+06
1.10273e+06
1.10273e+06
1.10273e+06
1.10273e+06
1.10273e+06
1.10273e+06
1.10273e+06
1.10273e+06
1.10273e+06
1.10273e+06
1.10273e+06
1.10273e+06
1.10273e+06
1.10273e+06
1.10273e+06
1.10273e+06
1.10273e+06
1.10273e+06
1.10273e+06
1.10273e+06
1.10273e+06
1.79872e+07
3.12323e+06
1.16003e+06
712735
587426
548163
534646
529546
527446
526508
526058
525829
525705
525636
525596
525572
525558
525549
525543
525540
525537
525536
525535
525535
525534
525534
525534
525534
525534
525533
525533
525533
525533
525533
525533
525533
525533
525533
525533
525533
525534
525534
525534
525533
525533
525533
525533
525533
525533
525533
525533
525533
525533
525533
525533
525533
525533
525533
525533
525533
525533
525533
525533
525533
525533
525533
525533
525533
525533
525533
525533
525533
525533
525533
525533
525533
525533
525533
525533
525533
525533
525533
525533
525533
525533
525533
525533
525533
525533
525533
525533
525533
525533
525533
525534
525534
525534
525534
525534
525534
1.79872e+07
3.10626e+06
1.0848e+06
574744
407824
346207
321660
311230
306521
304268
303130
302528
302194
302004
301891
301823
301781
301754
301738
301727
301720
301716
301713
301711
301709
301708
301707
301706
301706
301705
301705
301705
301705
301704
301704
301704
301704
301704
301704
301704
301704
301704
301704
301704
301704
301704
301704
301704
301704
301704
301703
301703
301703
301703
301703
301703
301703
301703
301703
301703
301703
301703
301703
301703
301703
301703
301703
301703
301703
301703
301703
301704
301704
301704
301704
301704
301704
301704
301704
301704
301704
301704
301704
301704
301704
301704
301704
301704
301704
301704
301704
301704
301704
301704
301704
301704
301704
301704
301704
301704
1.79872e+07
3.10324e+06
1.06587e+06
530330
340020
262035
227495
211345
203436
199395
197245
196058
195381
194983
194744
194597
194505
194447
194410
194387
194371
194360
194353
194348
194344
194341
194339
194337
194336
194334
194333
194332
194332
194331
194331
194331
194331
194330
194330
194330
194330
194330
194330
194330
194330
194329
194329
194329
194329
194329
194329
194329
194329
194329
194329
194329
194329
194329
194329
194329
194329
194329
194329
194329
194329
194329
194329
194329
194329
194329
194329
194329
194329
194329
194329
194329
194329
194329
194329
194329
194329
194329
194329
194329
194329
194329
194329
194329
194329
194329
194329
194329
194329
194329
194329
194330
194330
194330
194330
194330
1.79872e+07
3.10253e+06
1.06039e+06
514696
312417
224046
181906
160700
149594
143578
140218
138287
137149
136463
136042
135779
135613
135507
135439
135395
135365
135345
135331
135321
135313
135307
135302
135298
135295
135292
135289
135288
135286
135285
135284
135284
135283
135283
135282
135282
135282
135282
135282
135281
135281
135281
135281
135280
135280
135280
135280
135280
135280
135280
135280
135280
135280
135280
135280
135280
135280
135280
135280
135280
135280
135280
135280
135280
135280
135280
135280
135280
135280
135280
135280
135280
135280
135280
135280
135280
135280
135280
135280
135280
135280
135280
135280
135280
135281
135281
135281
135281
135281
135281
135281
135281
135281
135282
135282
135282
1.79872e+07
3.10231e+06
1.05855e+06
508695
300460
205948
158578
133409
119506
111596
106982
104232
102560
101528
100881
100470
100208
100038
99928.1
99855.4
99806.6
99772.9
99748.9
99730.9
99716.9
99705.6
99696.1
99688.2
99681.5
99676
99671.5
99667.9
99665.1
99662.9
99661.3
99660.1
99659.2
99658.6
99658.1
99657.7
99657.3
99657
99656.7
99656.3
99655.9
99655.5
99655.1
99654.7
99654.4
99654.3
99654.2
99654.3
99654.5
99654.7
99654.9
99655
99655.2
99655.3
99655.4
99655.5
99655.5
99655.6
99655.6
99655.6
99655.7
99655.7
99655.7
99655.7
99655.7
99655.7
99655.7
99655.7
99655.7
99655.7
99655.7
99655.7
99655.7
99655.7
99655.7
99655.7
99655.7
99655.7
99655.7
99655.7
99655.7
99655.7
99655.7
99655.7
99655.7
99655.8
99655.8
99655.8
99655.9
99656
99656.2
99656.4
99656.6
99656.8
99656.9
99656.8
1.79872e+07