/*--------------------------------*- C++ -*----------------------------------*\
| =========                 |                                                 |
| \\      /  F ield         | foam-extend: Open Source CFD                    |
|  \\    /   O peration     | Version:     4.0                                |
|   \\  /    A nd           | Web:         http://www.foam-extend.org         |
|    \\/     M anipulation  |                                                 |
\*---------------------------------------------------------------------------*/
FoamFile
{
    version     2.0;
    format      ascii;
    class       surfaceScalarField;
    location    "0.0004";
    object      phi;
}
// * * * * * * * * * * * * * * * * * * * * * * * * * * * * * * * * * * * * * //

dimensions      [0 3 -1 0 0 0 0];

internalField   nonuniform List<scalar> 
57362
(
3.78181e-11
2.24543e-15
3.78113e-11
6.77058e-15
3.77999e-11
1.13991e-14
3.77837e-11
1.62015e-14
3.77625e-11
2.12508e-14
3.77358e-11
2.66233e-14
3.77034e-11
3.24001e-14
3.76648e-11
3.86678e-14
3.76192e-11
4.55194e-14
3.75662e-11
5.30562e-14
3.75048e-11
6.13883e-14
3.74341e-11
7.06365e-14
3.73532e-11
8.09329e-14
3.72608e-11
9.24231e-14
3.71555e-11
1.05267e-13
3.70358e-11
1.1964e-13
3.69001e-11
1.35735e-13
3.67463e-11
1.53763e-13
3.65723e-11
1.73955e-13
3.63757e-11
1.96561e-13
3.61539e-11
2.21855e-13
3.59037e-11
2.50127e-13
3.5622e-11
2.81691e-13
3.53051e-11
3.16878e-13
3.4949e-11
3.56035e-13
3.45495e-11
3.99518e-13
3.41017e-11
4.47697e-13
3.36008e-11
5.00923e-13
3.30412e-11
5.59565e-13
3.24172e-11
6.23905e-13
3.17229e-11
6.94289e-13
3.0952e-11
7.70821e-13
3.00982e-11
8.53795e-13
2.91551e-11
9.42961e-13
2.81165e-11
1.03855e-12
2.69767e-11
1.13972e-12
2.57301e-11
1.24662e-12
2.43723e-11
1.3576e-12
2.28998e-11
1.47259e-12
2.13105e-11
1.58914e-12
1.96039e-11
1.7067e-12
1.77816e-11
1.82223e-12
1.58472e-11
1.93446e-12
1.38071e-11
2.04016e-12
1.16698e-11
2.13742e-12
9.44659e-12
2.22321e-12
7.15131e-12
2.29542e-12
4.79978e-12
2.35164e-12
2.4097e-12
2.39023e-12
2.40984e-12
3.78186e-11
4.45753e-15
3.78119e-11
1.34407e-14
3.78007e-11
2.26292e-14
3.77847e-11
3.21631e-14
3.77638e-11
4.21873e-14
3.77376e-11
5.28538e-14
3.77056e-11
6.43234e-14
3.76675e-11
7.6768e-14
3.76227e-11
9.03731e-14
3.75704e-11
1.0534e-13
3.75099e-11
1.21887e-13
3.74402e-11
1.40255e-13
3.73605e-11
1.60707e-13
3.72693e-11
1.83532e-13
3.71656e-11
2.09049e-13
3.70476e-11
2.37608e-13
3.69137e-11
2.69593e-13
3.6762e-11
3.05426e-13
3.65904e-11
3.45567e-13
3.63964e-11
3.90518e-13
3.61774e-11
4.40822e-13
3.59305e-11
4.97065e-13
3.56522e-11
5.59874e-13
3.53392e-11
6.29913e-13
3.49873e-11
7.07882e-13
3.45923e-11
7.94499e-13
3.41494e-11
8.90512e-13
3.36537e-11
9.96629e-13
3.30996e-11
1.11361e-12
3.24814e-11
1.24203e-12
3.17931e-11
1.3826e-12
3.10283e-11
1.53555e-12
3.01806e-11
1.70152e-12
2.92435e-11
1.87998e-12
2.82106e-11
2.07152e-12
2.70759e-11
2.27435e-12
2.58337e-11
2.48899e-12
2.44792e-11
2.7119e-12
2.30087e-11
2.94332e-12
2.14199e-11
3.1779e-12
1.97119e-11
3.415e-12
1.7886e-11
3.64806e-12
1.59459e-11
3.87485e-12
1.38975e-11
4.08858e-12
1.17497e-11
4.28548e-12
9.51376e-12
4.45929e-12
7.20367e-12
4.60572e-12
4.83566e-12
4.7198e-12
2.42794e-12
4.79814e-12
4.83796e-12
3.78311e-11
6.60411e-15
3.78247e-11
1.99133e-14
3.78138e-11
3.3527e-14
3.77983e-11
4.76529e-14
3.7778e-11
6.2506e-14
3.77525e-11
7.83118e-14
3.77215e-11
9.53088e-14
3.76845e-11
1.13752e-13
3.7641e-11
1.33918e-13
3.75902e-11
1.56103e-13
3.75314e-11
1.80635e-13
3.74638e-11
2.0787e-13
3.73863e-11
2.38199e-13
3.72978e-11
2.72054e-13
3.71969e-11
3.09909e-13
3.70822e-11
3.52286e-13
3.6952e-11
3.99758e-13
3.68045e-11
4.52956e-13
3.66375e-11
5.12566e-13
3.64486e-11
5.79342e-13
3.62353e-11
6.54098e-13
3.59947e-11
7.37715e-13
3.57234e-11
8.31137e-13
3.54179e-11
9.35366e-13
3.50743e-11
1.05147e-12
3.46882e-11
1.18052e-12
3.4255e-11
1.32368e-12
3.37695e-11
1.48202e-12
3.32264e-11
1.65673e-12
3.26196e-11
1.84869e-12
3.19432e-11
2.05906e-12
3.11904e-11
2.28816e-12
3.03548e-11
2.53713e-12
2.94295e-11
2.8051e-12
2.84077e-11
3.09326e-12
2.72831e-11
3.39869e-12
2.60495e-11
3.72264e-12
2.47016e-11
4.05939e-12
2.3235e-11
4.40992e-12
2.16469e-11
4.76561e-12
1.99358e-11
5.12608e-12
1.81027e-11
5.48089e-12
1.61505e-11
5.82699e-12
1.40852e-11
6.15363e-12
1.19156e-11
6.45517e-12
9.65308e-12
6.72171e-12
7.31227e-12
6.94661e-12
4.9101e-12
7.122e-12
2.4658e-12
7.24257e-12
7.30387e-12
3.7844e-11
8.65317e-15
3.78378e-11
2.6092e-14
3.78274e-11
4.39303e-14
3.78126e-11
6.24406e-14
3.77932e-11
8.19052e-14
3.77689e-11
1.0262e-13
3.77393e-11
1.24898e-13
3.7704e-11
1.49075e-13
3.76624e-11
1.75512e-13
3.76139e-11
2.04603e-13
3.75577e-11
2.36775e-13
3.74931e-11
2.72499e-13
3.7419e-11
3.12292e-13
3.73343e-11
3.5672e-13
3.72378e-11
4.0641e-13
3.7128e-11
4.62053e-13
3.70034e-11
5.24407e-13
3.6862e-11
5.94307e-13
3.67019e-11
6.72666e-13
3.65207e-11
7.60485e-13
3.6316e-11
8.5885e-13
3.60847e-11
9.68937e-13
3.58238e-11
1.09201e-12
3.55297e-11
1.22943e-12
3.51985e-11
1.38261e-12
3.4826e-11
1.55303e-12
3.44074e-11
1.74228e-12
3.39375e-11
1.95181e-12
3.3411e-11
2.18329e-12
3.28216e-11
2.43794e-12
3.21633e-11
2.71747e-12
3.1429e-11
3.02228e-12
3.0612e-11
3.35425e-12
2.9705e-11
3.71201e-12
2.87007e-11
4.09783e-12
2.7592e-11
4.50719e-12
2.63721e-11
4.94306e-12
2.50349e-11
5.39638e-12
2.3575e-11
5.87054e-12
2.19888e-11
6.35171e-12
2.02737e-11
6.84189e-12
1.84301e-11
7.32455e-12
1.64604e-11
7.79739e-12
1.437e-11
8.24421e-12
1.21676e-11
8.65805e-12
9.86508e-12
9.02445e-12
7.47773e-12
9.33435e-12
5.02363e-12
9.57635e-12
2.52356e-12
9.74295e-12
9.8277e-12
3.7857e-11
1.05741e-14
3.78512e-11
3.18845e-14
3.78414e-11
5.36838e-14
3.78276e-11
7.63057e-14
3.78094e-11
1.00096e-13
3.77866e-11
1.25416e-13
3.77588e-11
1.52652e-13
3.77257e-11
1.82212e-13
3.76866e-11
2.14542e-13
3.76411e-11
2.50124e-13
3.75884e-11
2.89483e-13
3.75277e-11
3.33199e-13
3.74581e-11
3.81905e-13
3.73785e-11
4.36302e-13
3.72877e-11
4.97163e-13
3.71844e-11
5.6534e-13
3.7067e-11
6.41772e-13
3.69338e-11
7.27494e-13
3.67828e-11
8.23642e-13
3.66118e-11
9.31458e-13
3.64184e-11
1.0523e-12
3.61996e-11
1.18765e-12
3.59525e-11
1.33908e-12
3.56736e-11
1.50831e-12
3.5359e-11
1.69716e-12
3.50045e-11
1.90749e-12
3.46054e-11
2.14134e-12
3.41566e-11
2.40062e-12
3.36523e-11
2.68751e-12
3.30865e-11
3.0036e-12
3.24527e-11
3.35128e-12
3.17436e-11
3.73106e-12
3.09521e-11
4.14578e-12
3.00702e-11
4.59348e-12
2.90901e-11
5.07799e-12
2.80038e-11
5.59285e-12
2.68034e-11
6.14349e-12
2.54819e-11
6.71698e-12
2.40325e-11
7.31991e-12
2.24504e-11
7.93278e-12
2.07317e-11
8.56033e-12
1.88756e-11
9.17979e-12
1.68833e-11
9.78938e-12
1.47597e-11
1.03671e-11
1.25135e-11
1.09041e-11
1.01567e-11
1.13809e-11
7.70571e-12
1.17853e-11
5.18024e-12
1.21017e-11
2.60331e-12
1.23199e-11
1.2431e-11
3.78814e-11
1.23386e-14
3.78761e-11
3.72056e-14
3.78671e-11
6.2644e-14
3.78544e-11
8.90444e-14
3.78377e-11
1.16811e-13
3.78167e-11
1.46367e-13
3.77912e-11
1.78163e-13
3.77608e-11
2.1268e-13
3.77249e-11
2.50439e-13
3.7683e-11
2.92004e-13
3.76344e-11
3.37994e-13
3.75786e-11
3.89089e-13
3.75144e-11
4.46035e-13
3.7441e-11
5.09659e-13
3.73573e-11
5.80871e-13
3.7262e-11
6.60679e-13
3.71535e-11
7.50196e-13
3.70304e-11
8.5065e-13
3.68906e-11
9.63391e-13
3.67321e-11
1.08991e-12
3.65526e-11
1.23182e-12
3.63493e-11
1.3909e-12
3.61193e-11
1.56907e-12
3.58592e-11
1.76839e-12
3.55653e-11
1.99109e-12
3.52333e-11
2.23946e-12
3.48586e-11
2.51603e-12
3.4436e-11
2.82315e-12
3.39598e-11
3.16367e-12
3.34238e-11
3.53953e-12
3.28212e-11
3.95403e-12
3.21444e-11
4.4077e-12
3.13858e-11
4.90482e-12
3.05365e-11
5.44246e-12
2.95881e-11
6.02716e-12
2.85314e-11
6.64915e-12
2.73572e-11
7.31904e-12
2.60572e-11
8.01649e-12
2.46224e-11
8.75664e-12
2.3047e-11
9.50776e-12
2.13246e-11
1.02849e-11
1.94532e-11
1.10513e-11
1.74328e-11
1.18115e-11
1.52672e-11
1.2533e-11
1.29649e-11
1.32077e-11
1.0538e-11
1.38083e-11
8.00441e-12
1.43197e-11
5.38571e-12
1.47209e-11
2.70804e-12
1.49982e-11
1.51396e-11
3.79055e-11
1.39201e-14
3.79007e-11
4.19747e-14
3.78927e-11
7.06756e-14
3.78812e-11
1.00464e-13
3.78662e-11
1.31798e-13
3.78475e-11
1.65156e-13
3.78246e-11
2.01048e-13
3.77972e-11
2.40019e-13
3.7765e-11
2.8266e-13
3.77274e-11
3.29612e-13
3.76838e-11
3.81579e-13
3.76335e-11
4.39332e-13
3.75758e-11
5.03723e-13
3.75098e-11
5.75695e-13
3.74344e-11
6.56288e-13
3.73484e-11
7.46656e-13
3.72505e-11
8.48076e-13
3.71392e-11
9.61962e-13
3.70127e-11
1.08987e-12
3.6869e-11
1.23352e-12
3.6706e-11
1.3948e-12
3.65211e-11
1.57578e-12
3.63115e-11
1.77871e-12
3.60738e-11
2.006e-12
3.58046e-11
2.26032e-12
3.54995e-11
2.5444e-12
3.51542e-11
2.8613e-12
3.47634e-11
3.21387e-12
3.43214e-11
3.60566e-12
3.38216e-11
4.03905e-12
3.32573e-11
4.51841e-12
3.26202e-11
5.04431e-12
3.19023e-11
5.62286e-12
3.10938e-11
6.25e-12
3.01855e-11
6.93563e-12
2.91667e-11
7.66648e-12
2.80268e-11
8.45895e-12
2.67559e-11
9.28545e-12
2.53426e-11
1.01695e-11
2.37794e-11
1.10688e-11
2.20571e-11
1.20062e-11
2.01712e-11
1.29349e-11
1.81197e-11
1.38619e-11
1.59048e-11
1.47462e-11
1.35343e-11
1.55774e-11
1.10208e-11
1.63207e-11
8.38358e-12
1.69564e-11
5.64708e-12
1.74569e-11
2.84141e-12
1.78037e-11
1.79808e-11
3.79287e-11
1.52944e-14
3.79245e-11
4.61194e-14
3.79176e-11
7.76562e-14
3.79076e-11
1.10391e-13
3.78946e-11
1.44828e-13
3.78783e-11
1.81496e-13
3.78583e-11
2.20957e-13
3.78345e-11
2.63813e-13
3.78065e-11
3.10717e-13
3.77737e-11
3.62378e-13
3.77357e-11
4.19575e-13
3.76919e-11
4.83164e-13
3.76415e-11
5.54092e-13
3.75838e-11
6.33407e-13
3.75178e-11
7.22268e-13
3.74425e-11
8.21966e-13
3.73566e-11
9.33929e-13
3.72588e-11
1.05974e-12
3.71475e-11
1.20117e-12
3.70209e-11
1.36014e-12
3.68768e-11
1.53881e-12
3.67131e-11
1.73952e-12
3.65269e-11
1.96486e-12
3.63153e-11
2.21763e-12
3.60747e-11
2.5009e-12
3.58011e-11
2.81787e-12
3.54903e-11
3.17219e-12
3.51368e-11
3.56722e-12
3.47353e-11
4.00734e-12
3.42788e-11
4.4954e-12
3.37605e-11
5.0371e-12
3.31715e-11
5.63293e-12
3.25037e-11
6.29162e-12
3.17458e-11
7.00715e-12
3.08883e-11
7.79524e-12
2.9918e-11
8.63555e-12
2.8823e-11
9.55741e-12
2.75912e-11
1.05157e-11
2.62071e-11
1.15586e-11
2.4663e-11
1.26116e-11
2.29427e-11
1.37319e-11
2.10417e-11
1.4836e-11
1.89556e-11
1.59523e-11
1.66833e-11
1.70194e-11
1.42328e-11
1.80309e-11
1.1615e-11
1.89396e-11
8.85202e-12
1.97213e-11
5.97077e-12
2.03392e-11
3.00688e-12
2.07688e-11
2.09887e-11
3.79623e-11
1.64409e-14
3.79589e-11
4.95771e-14
3.79531e-11
8.34806e-14
3.79448e-11
1.18676e-13
3.79339e-11
1.55706e-13
3.79202e-11
1.95142e-13
3.79036e-11
2.3759e-13
3.78837e-11
2.83702e-13
3.78602e-11
3.34184e-13
3.78328e-11
3.89803e-13
3.7801e-11
4.51404e-13
3.77642e-11
5.19918e-13
3.77219e-11
5.96373e-13
3.76734e-11
6.81911e-13
3.76179e-11
7.778e-13
3.75544e-11
8.85451e-13
3.74819e-11
1.00643e-12
3.73991e-11
1.14249e-12
3.73047e-11
1.29556e-12
3.71971e-11
1.4678e-12
3.70743e-11
1.66159e-12
3.69342e-11
1.87956e-12
3.67744e-11
2.12463e-12
3.65921e-11
2.39995e-12
3.63839e-11
2.70905e-12
3.61461e-11
3.05559e-12
3.58745e-11
3.44382e-12
3.55638e-11
3.87768e-12
3.52087e-11
4.36245e-12
3.48022e-11
4.90152e-12
3.43373e-11
5.50209e-12
3.38046e-11
6.16469e-12
3.31957e-11
6.9009e-12
3.2498e-11
7.70308e-12
3.17008e-11
8.59272e-12
3.07899e-11
9.54376e-12
2.97504e-11
1.05967e-11
2.8569e-11
1.16934e-11
2.7226e-11
1.29e-11
2.57111e-11
1.41223e-11
2.40051e-11
1.5435e-11
2.20963e-11
1.674e-11
1.99765e-11
1.8069e-11
1.76414e-11
1.93504e-11
1.50969e-11
2.0573e-11
1.23541e-11
2.16798e-11
9.43669e-12
2.26373e-11
6.37602e-12
2.33984e-11
3.21436e-12
2.39297e-11
2.42023e-11
3.79944e-11
1.73416e-14
3.79916e-11
5.22938e-14
3.79871e-11
8.80577e-14
3.79805e-11
1.25188e-13
3.7972e-11
1.6426e-13
3.79613e-11
2.05878e-13
3.79482e-11
2.50685e-13
3.79325e-11
2.99372e-13
3.7914e-11
3.52689e-13
3.78923e-11
4.11452e-13
3.78672e-11
4.7656e-13
3.78381e-11
5.49005e-13
3.78046e-11
6.29887e-13
3.7766e-11
7.20426e-13
3.77218e-11
8.21982e-13
3.76712e-11
9.36073e-13
3.76133e-11
1.06439e-12
3.75469e-11
1.20882e-12
3.7471e-11
1.37146e-12
3.73841e-11
1.55467e-12
3.72846e-11
1.76105e-12
3.71707e-11
1.9935e-12
3.70401e-11
2.25524e-12
3.68902e-11
2.54979e-12
3.67182e-11
2.8811e-12
3.65204e-11
3.25333e-12
3.62929e-11
3.67135e-12
3.60307e-11
4.13972e-12
3.57288e-11
4.66468e-12
3.53798e-11
5.25022e-12
3.49774e-11
5.90531e-12
3.45109e-11
6.63038e-12
3.39729e-11
7.441e-12
3.33479e-11
8.32634e-12
3.2627e-11
9.31816e-12
3.17901e-11
1.03773e-11
3.08237e-11
1.15713e-11
2.97093e-11
1.2803e-11
2.84198e-11
1.42016e-11
2.69504e-11
1.55874e-11
2.52586e-11
1.71398e-11
2.33411e-11
1.86576e-11
2.11871e-11
2.02329e-11
1.87825e-11
2.17574e-11
1.61337e-11
2.32283e-11
1.32456e-11
2.45706e-11
1.0146e-11
2.57408e-11
6.86952e-12
2.66773e-11
3.46776e-12
2.7334e-11
2.76721e-11
3.80242e-11
1.79822e-14
3.80223e-11
5.42265e-14
3.8019e-11
9.13149e-14
3.80144e-11
1.29824e-13
3.80083e-11
1.70354e-13
3.80007e-11
2.13533e-13
3.79913e-11
2.60032e-13
3.79801e-11
3.10571e-13
3.79669e-11
3.65933e-13
3.79513e-11
4.26972e-13
3.79333e-11
4.94629e-13
3.79123e-11
5.69945e-13
3.78881e-11
6.54074e-13
3.78603e-11
7.48301e-13
3.78282e-11
8.54063e-13
3.77913e-11
9.72961e-13
3.77489e-11
1.10679e-12
3.77001e-11
1.25756e-12
3.7644e-11
1.42752e-12
3.75795e-11
1.61919e-12
3.75052e-11
1.83537e-12
3.74195e-11
2.0792e-12
3.73205e-11
2.3542e-12
3.7206e-11
2.66423e-12
3.70734e-11
3.01366e-12
3.69195e-11
3.40713e-12
3.67407e-11
3.85015e-12
3.65322e-11
4.34791e-12
3.62894e-11
4.90764e-12
3.60048e-11
5.5341e-12
3.56726e-11
6.23795e-12
3.52812e-11
7.02011e-12
3.48234e-11
7.89953e-12
3.42827e-11
8.86411e-12
3.36482e-11
9.95331e-12
3.29e-11
1.11208e-11
3.20189e-11
1.24518e-11
3.09878e-11
1.38282e-11
2.97722e-11
1.54129e-11
2.83638e-11
1.69891e-11
2.67241e-11
1.8771e-11
2.4825e-11
2.05472e-11
2.26482e-11
2.24015e-11
2.01762e-11
2.42211e-11
1.74083e-11
2.59901e-11
1.43504e-11
2.76227e-11
1.10295e-11
2.90581e-11
7.48701e-12
3.02165e-11
3.78552e-12
3.10335e-11
3.14559e-11
3.80631e-11
1.83525e-14
3.8062e-11
5.53441e-14
3.80601e-11
9.31997e-14
3.80574e-11
1.3251e-13
3.80539e-11
1.7389e-13
3.80495e-11
2.17983e-13
3.8044e-11
2.65478e-13
3.80375e-11
3.17114e-13
3.80297e-11
3.73695e-13
3.80206e-11
4.36102e-13
3.80099e-11
5.05305e-13
3.79975e-11
5.82376e-13
3.7983e-11
6.68511e-13
3.79663e-11
7.65043e-13
3.79469e-11
8.73461e-13
3.79244e-11
9.95438e-13
3.78983e-11
1.13285e-12
3.78681e-11
1.28779e-12
3.7833e-11
1.46264e-12
3.77921e-11
1.66005e-12
3.77445e-11
1.88301e-12
3.76888e-11
2.13486e-12
3.76236e-11
2.41938e-12
3.75471e-11
2.74074e-12
3.74571e-11
3.10371e-12
3.73507e-11
3.5134e-12
3.72251e-11
3.97591e-12
3.70757e-11
4.49713e-12
3.68987e-11
5.08525e-12
3.66862e-11
5.74589e-12
3.64343e-11
6.49149e-12
3.61291e-11
7.32355e-12
3.57675e-11
8.26513e-12
3.53259e-11
9.30175e-12
3.48029e-11
1.04853e-11
3.41626e-11
1.1753e-11
3.33997e-11
1.32323e-11
3.24789e-11
1.47355e-11
3.13574e-11
1.65623e-11
3.00555e-11
1.8277e-11
2.84461e-11
2.04105e-11
2.65477e-11
2.24464e-11
2.4357e-11
2.46128e-11
2.18149e-11
2.67692e-11
1.89268e-11
2.88909e-11
1.56767e-11
3.08792e-11
1.20995e-11
3.26431e-11
8.23913e-12
3.40818e-11
4.17427e-12
3.51031e-11
3.56341e-11
3.80989e-11
1.8446e-14
3.80986e-11
5.56269e-14
3.80981e-11
9.36789e-14
3.80974e-11
1.33198e-13
3.80965e-11
1.74804e-13
3.80954e-11
2.19147e-13
3.80939e-11
2.66922e-13
3.80921e-11
3.18879e-13
3.809e-11
3.7583e-13
3.80874e-11
4.38669e-13
3.80844e-11
5.08379e-13
3.80807e-11
5.86053e-13
3.80763e-11
6.72907e-13
3.8071e-11
7.70303e-13
3.80647e-11
8.79766e-13
3.80571e-11
1.00301e-12
3.8048e-11
1.14196e-12
3.8037e-11
1.2988e-12
3.80237e-11
1.47598e-12
3.80075e-11
1.67625e-12
3.79877e-11
1.90275e-12
3.79636e-11
2.159e-12
3.7934e-11
2.44898e-12
3.78975e-11
2.77714e-12
3.78526e-11
3.14861e-12
3.77969e-11
3.56893e-12
3.77282e-11
4.04473e-12
3.76423e-11
4.58265e-12
3.75361e-11
5.19168e-12
3.74023e-11
5.87864e-12
3.72373e-11
6.65725e-12
3.70277e-11
7.53074e-12
3.67695e-11
8.5246e-12
3.6441e-11
9.62587e-12
3.60349e-11
1.08928e-11
3.55222e-11
1.22588e-11
3.48813e-11
1.38722e-11
3.40911e-11
1.55174e-11
3.30881e-11
1.75562e-11
3.18929e-11
1.94645e-11
3.04318e-11
2.18507e-11
2.86244e-11
2.42341e-11
2.6444e-11
2.67749e-11
2.3848e-11
2.93485e-11
2.08201e-11
3.19058e-11
1.73493e-11
3.43381e-11
1.34581e-11
3.65261e-11
9.20053e-12
3.83331e-11
4.67272e-12
3.96271e-11
4.03038e-11
3.81309e-11
1.82604e-14
3.81315e-11
5.50681e-14
3.81324e-11
9.27408e-14
3.81337e-11
1.31871e-13
3.81355e-11
1.73073e-13
3.81376e-11
2.16995e-13
3.81402e-11
2.64328e-13
3.81433e-11
3.15819e-13
3.81468e-11
3.72278e-13
3.81509e-11
4.34597e-13
3.81555e-11
5.0376e-13
3.81607e-11
5.8086e-13
3.81665e-11
6.6712e-13
3.81729e-11
7.63907e-13
3.81799e-11
8.72758e-13
3.81875e-11
9.95407e-13
3.81957e-11
1.13381e-12
3.82043e-11
1.29017e-12
3.82133e-11
1.467e-12
3.82224e-11
1.66712e-12
3.82314e-11
1.89377e-12
3.82398e-11
2.15057e-12
3.82471e-11
2.44168e-12
3.82524e-11
2.77178e-12
3.82549e-11
3.14625e-12
3.82526e-11
3.57106e-12
3.82444e-11
4.05326e-12
3.82265e-11
4.60022e-12
3.81974e-11
5.22157e-12
3.81495e-11
5.92556e-12
3.80826e-11
6.72657e-12
3.79797e-11
7.63081e-12
3.78465e-11
8.66403e-12
3.76462e-11
9.81889e-12
3.73998e-11
1.11544e-11
3.70335e-11
1.26083e-11
3.65894e-11
1.43492e-11
3.59635e-11
1.61105e-11
3.51262e-11
1.84532e-11
3.42131e-11
2.03354e-11
3.27646e-11
2.33636e-11
3.09216e-11
2.60868e-11
2.88072e-11
2.89255e-11
2.61849e-11
3.19864e-11
2.30527e-11
3.50597e-11
1.93457e-11
3.806e-11
1.50999e-11
4.07859e-11
1.03724e-11
4.307e-11
5.28436e-12
4.4723e-11
4.55945e-11
3.81704e-11
1.77977e-14
3.81718e-11
5.36734e-14
3.81741e-11
9.03948e-14
3.81774e-11
1.28541e-13
3.81818e-11
1.68713e-13
3.81872e-11
2.11547e-13
3.81939e-11
2.57718e-13
3.82017e-11
3.07958e-13
3.82109e-11
3.63064e-13
3.82216e-11
4.23912e-13
3.82339e-11
4.9147e-13
3.8248e-11
5.66817e-13
3.82639e-11
6.5116e-13
3.8282e-11
7.45852e-13
3.83023e-11
8.52418e-13
3.83251e-11
9.72581e-13
3.83507e-11
1.10829e-12
3.83791e-11
1.26176e-12
3.84106e-11
1.4355e-12
3.84453e-11
1.63237e-12
3.84835e-11
1.85563e-12
3.8525e-11
2.10899e-12
3.857e-11
2.39669e-12
3.86182e-11
2.72358e-12
3.86693e-11
3.09521e-12
3.87223e-11
3.51789e-12
3.87767e-11
3.99898e-12
3.88299e-11
4.54656e-12
3.88812e-11
5.17065e-12
3.89243e-11
5.88113e-12
3.89595e-11
6.69252e-12
3.89725e-11
7.61479e-12
3.89661e-11
8.67272e-12
3.89119e-11
9.86713e-12
3.88152e-11
1.12543e-11
3.86286e-11
1.2785e-11
3.83444e-11
1.4635e-11
3.79194e-11
1.65234e-11
3.72176e-11
1.91418e-11
3.64225e-11
2.11327e-11
3.54043e-11
1.34431e-11
1.0893e-11
3.38722e-11
1.24566e-11
1.51152e-11
3.18139e-11
1.41532e-11
1.67947e-11
2.91787e-11
1.60231e-11
1.85654e-11
2.59055e-11
1.7963e-11
2.03417e-11
2.19386e-11
1.99255e-11
2.20728e-11
1.72597e-11
2.18132e-11
2.36295e-11
1.19289e-11
2.34981e-11
2.48858e-11
6.10039e-12
2.48328e-11
2.57064e-11
2.5693e-11
2.59916e-11
3.82039e-11
1.7064e-14
3.82061e-11
5.14615e-14
3.82098e-11
8.66723e-14
3.82151e-11
1.23253e-13
3.8222e-11
1.61783e-13
3.82307e-11
2.02873e-13
3.82412e-11
2.47175e-13
3.82538e-11
2.95395e-13
3.82686e-11
3.48302e-13
3.82857e-11
4.06742e-13
3.83056e-11
4.71653e-13
3.83283e-11
5.44081e-13
3.83543e-11
6.25198e-13
3.83838e-11
7.1632e-13
3.84173e-11
8.18935e-13
3.84551e-11
9.34728e-13
3.84978e-11
1.06561e-12
3.85458e-11
1.21375e-12
3.85997e-11
1.38164e-12
3.866e-11
1.57211e-12
3.87272e-11
1.78839e-12
3.8802e-11
2.0342e-12
3.88849e-11
2.3138e-12
3.89764e-11
2.63211e-12
3.90769e-11
2.99476e-12
3.91864e-11
3.40829e-12
3.93055e-11
3.88019e-12
3.94325e-11
4.41921e-12
3.95687e-11
5.03538e-12
3.97081e-11
5.74048e-12
3.98556e-11
6.54789e-12
3.99931e-11
7.47362e-12
4.01383e-11
8.53526e-12
4.02402e-11
9.75507e-12
4.03597e-11
1.11548e-11
4.03508e-11
1.27676e-11
4.04215e-11
1.46135e-11
4.01234e-11
1.67555e-11
4.02138e-11
1.91727e-11
2.01574e-11
2.20543e-11
1.89682e-11
-1.11725e-11
1.17126e-11
1.99045e-11
-1.86358e-11
1.82724e-11
1.28077e-11
-1.80607e-11
1.76032e-11
1.46364e-11
-1.71754e-11
1.65904e-11
1.66506e-11
-1.59602e-11
1.5189e-11
1.87813e-11
-1.43336e-11
1.33436e-11
2.09585e-11
-1.2248e-11
1.10387e-11
2.30535e-11
-9.71609e-12
8.29175e-12
2.49416e-11
-6.76542e-12
5.15693e-12
2.64525e-11
-3.4771e-12
1.75139e-12
2.74256e-11
3.82367e-11
1.60697e-14
3.82397e-11
4.84638e-14
3.82448e-11
8.16259e-14
3.82519e-11
1.16082e-13
3.82613e-11
1.52379e-13
3.82731e-11
1.91095e-13
3.82874e-11
2.32847e-13
3.83045e-11
2.78303e-13
3.83246e-11
3.28192e-13
3.83481e-11
3.83318e-13
3.83752e-11
4.44571e-13
3.84063e-11
5.12947e-13
3.84419e-11
5.89564e-13
3.84826e-11
6.75678e-13
3.85288e-11
7.72713e-13
3.85813e-11
8.82286e-13
3.86406e-11
1.00623e-12
3.87077e-11
1.14666e-12
3.87834e-11
1.30595e-12
3.88687e-11
1.48687e-12
3.89645e-11
1.69258e-12
3.9072e-11
1.92671e-12
3.91923e-11
2.19347e-12
3.93267e-11
2.49772e-12
3.94764e-11
2.84508e-12
3.96424e-11
3.24216e-12
3.98263e-11
3.69646e-12
4.00279e-11
4.21714e-12
4.02497e-11
4.81414e-12
4.04882e-11
5.50068e-12
4.07483e-11
6.28919e-12
4.10183e-11
7.20036e-12
4.13101e-11
8.24685e-12
4.15917e-11
9.46615e-12
4.18953e-11
1.08584e-11
4.2138e-11
1.25099e-11
4.24186e-11
1.43485e-11
4.25008e-11
1.66407e-11
4.27573e-11
1.89569e-11
2.20188e-11
2.23653e-11
2.03469e-11
-1.18087e-11
1.2114e-11
2.18769e-11
-2.02629e-11
2.00031e-11
-1.3437e-11
1.36378e-11
-1.98672e-11
1.95067e-11
-1.53836e-11
1.57235e-11
-1.91521e-11
1.86339e-11
-1.75383e-11
1.80581e-11
-1.80478e-11
1.73018e-11
-1.98409e-11
2.06025e-11
-1.64559e-11
1.54053e-11
-2.21982e-11
2.32719e-11
-1.42178e-11
1.28995e-11
-2.45266e-11
2.58554e-11
-1.14239e-11
9.80641e-12
-2.66318e-11
2.82498e-11
-8.04302e-12
6.15573e-12
-2.83076e-11
3.01927e-11
-4.16448e-12
2.10116e-12
-2.93572e-11
3.14213e-11
3.82684e-11
1.48295e-14
3.82721e-11
4.47239e-14
3.82784e-11
7.53289e-14
3.82874e-11
1.07131e-13
3.82991e-11
1.40637e-13
3.83138e-11
1.76383e-13
3.83318e-11
2.14939e-13
3.83531e-11
2.56926e-13
3.83783e-11
3.0302e-13
3.84077e-11
3.53969e-13
3.84416e-11
4.10602e-13
3.84807e-11
4.73847e-13
3.85256e-11
5.44745e-13
3.85768e-11
6.24473e-13
3.86351e-11
7.14366e-13
3.87015e-11
8.15938e-13
3.87768e-11
9.30922e-13
3.88622e-11
1.0613e-12
3.89588e-11
1.20933e-12
3.9068e-11
1.37765e-12
3.91914e-11
1.56925e-12
3.93305e-11
1.78763e-12
3.94872e-11
2.03682e-12
3.96633e-11
2.32155e-12
3.98612e-11
2.64726e-12
4.00828e-11
3.02048e-12
4.03311e-11
3.44852e-12
4.06072e-11
3.9407e-12
4.09155e-11
4.50667e-12
4.12545e-11
5.16057e-12
4.16323e-11
5.91396e-12
4.20385e-11
6.79074e-12
4.24916e-11
7.80046e-12
4.29586e-11
8.99025e-12
4.34826e-11
1.03506e-11
4.39793e-11
1.19918e-11
4.45403e-11
1.38229e-11
4.49919e-11
1.61432e-11
4.54562e-11
1.85604e-11
2.38024e-11
2.19775e-11
2.19595e-11
-1.21145e-11
1.2182e-11
2.38244e-11
-2.21154e-11
2.19923e-11
-1.40196e-11
1.41196e-11
-2.19666e-11
2.17421e-11
-1.62268e-11
1.64625e-11
-2.14959e-11
2.11039e-11
-1.87322e-11
1.91588e-11
-2.06073e-11
1.99538e-11
-2.14984e-11
2.22093e-11
-1.92122e-11
1.80463e-11
-2.43401e-11
2.55904e-11
-1.67052e-11
1.53105e-11
-2.73229e-11
2.87583e-11
-1.36772e-11
1.18454e-11
-3.00789e-11
3.19254e-11
-9.78708e-12
7.53657e-12
-3.23196e-11
3.45744e-11
-5.12148e-12
2.59115e-12
-3.37285e-11
3.62616e-11
3.82973e-11
1.33615e-14
3.83017e-11
4.02973e-14
3.83092e-11
6.78748e-14
3.83198e-11
9.65337e-14
3.83337e-11
1.26732e-13
3.83511e-11
1.58953e-13
3.83723e-11
1.93715e-13
3.83977e-11
2.31578e-13
3.84276e-11
2.73156e-13
3.84624e-11
3.19126e-13
3.85028e-11
3.70242e-13
3.85493e-11
4.27346e-13
3.86026e-11
4.91388e-13
3.86637e-11
5.6344e-13
3.87333e-11
6.4472e-13
3.88127e-11
7.36617e-13
3.89029e-11
8.40718e-13
3.90053e-11
9.58844e-13
3.91216e-11
1.09309e-12
3.92534e-11
1.24587e-12
3.94027e-11
1.41998e-12
3.95716e-11
1.61869e-12
3.97627e-11
1.84575e-12
3.99786e-11
2.10563e-12
4.02225e-11
2.40345e-12
4.04974e-11
2.74545e-12
4.08076e-11
3.13861e-12
4.11558e-11
3.59204e-12
4.15482e-11
4.11491e-12
4.1986e-11
4.72157e-12
4.24786e-11
5.42282e-12
4.30226e-11
6.24401e-12
4.36334e-11
7.19292e-12
4.42958e-11
8.32163e-12
4.50373e-11
9.61629e-12
4.58166e-11
1.11998e-11
4.66791e-11
1.29751e-11
4.75397e-11
1.5258e-11
4.84399e-11
1.769e-11
2.55833e-11
2.10856e-11
2.37034e-11
-1.2052e-11
1.18953e-11
2.57848e-11
-2.41657e-11
2.42138e-11
-1.42608e-11
1.42049e-11
-2.43498e-11
2.43142e-11
-1.67243e-11
1.67833e-11
-2.42285e-11
2.40524e-11
-1.96194e-11
1.98426e-11
-2.36617e-11
2.33402e-11
-2.30328e-11
2.34353e-11
-1.16374e-11
-1.3971e-11
1.11442e-11
1.41196e-11
-1.01065e-11
-1.62181e-11
9.66323e-12
1.64364e-11
-8.2307e-12
-1.81274e-11
7.64566e-12
1.85571e-11
-5.7056e-12
-1.96653e-11
4.96175e-12
2.03101e-11
-2.57823e-12
2.13555e-11
-2.05439e-11
1.72623e-12
3.83229e-11
1.1688e-14
3.8328e-11
3.52504e-14
3.83365e-11
5.93754e-14
3.83486e-11
8.44484e-14
3.83644e-11
1.10871e-13
3.83843e-11
1.39067e-13
3.84085e-11
1.69492e-13
3.84375e-11
2.02638e-13
3.84716e-11
2.39045e-13
3.85114e-11
2.79307e-13
3.85576e-11
3.2409e-13
3.86108e-11
3.74136e-13
3.86719e-11
4.30282e-13
3.87419e-11
4.93478e-13
3.88218e-11
5.64802e-13
3.89129e-11
6.45486e-13
3.90167e-11
7.36939e-13
3.91348e-11
8.40784e-13
3.9269e-11
9.58892e-13
3.94215e-11
1.09343e-12
3.95946e-11
1.2469e-12
3.9791e-11
1.42225e-12
4.0014e-11
1.62288e-12
4.02667e-11
1.85284e-12
4.05535e-11
2.11683e-12
4.08783e-11
2.42057e-12
4.12467e-11
2.7705e-12
4.16633e-11
3.17513e-12
4.21359e-11
3.64302e-12
4.26688e-11
4.18784e-12
4.32737e-11
4.81986e-12
4.39518e-11
5.56356e-12
4.4722e-11
6.42725e-12
4.55773e-11
7.46054e-12
4.65476e-11
8.65608e-12
4.76101e-11
1.01245e-11
4.88021e-11
1.18027e-11
5.00889e-11
1.39473e-11
5.14676e-11
1.63428e-11
2.73951e-11
1.95629e-11
2.55589e-11
-1.15924e-11
1.12104e-11
2.78024e-11
-2.63803e-11
2.6639e-11
-1.4099e-11
1.38346e-11
-2.69946e-11
2.7195e-11
-1.67715e-11
1.65913e-11
-2.73683e-11
2.74226e-11
-1.99829e-11
1.99644e-11
-2.73415e-11
2.71039e-11
-2.37557e-11
2.40401e-11
-1.40752e-11
-1.47463e-11
1.35975e-11
1.49226e-11
-1.25699e-11
-1.74975e-11
1.21121e-11
1.78313e-11
-1.05362e-11
-2.0276e-11
9.88441e-12
2.08705e-11
-7.52362e-12
-2.27199e-11
6.5997e-12
2.36129e-11
-3.471e-12
2.53886e-11
-2.42665e-11
2.33686e-12
3.83461e-11
9.83422e-15
3.83517e-11
2.96598e-14
3.83611e-11
4.99596e-14
3.83745e-11
7.10585e-14
3.83921e-11
9.32952e-14
3.84141e-11
1.17028e-13
3.8441e-11
1.4264e-13
3.84731e-11
1.70547e-13
3.85109e-11
2.01205e-13
3.85551e-11
2.35118e-13
3.86063e-11
2.72848e-13
3.86655e-11
3.15025e-13
3.87334e-11
3.62358e-13
3.88112e-11
4.15653e-13
3.89002e-11
4.75828e-13
3.90018e-11
5.4393e-13
3.91176e-11
6.21164e-13
3.92495e-11
7.08914e-13
3.93996e-11
8.08783e-13
3.95704e-11
9.2263e-13
3.97647e-11
1.05262e-12
3.99857e-11
1.20127e-12
4.02371e-11
1.37156e-12
4.0523e-11
1.567e-12
4.08482e-11
1.79167e-12
4.12181e-11
2.05062e-12
4.16393e-11
2.34951e-12
4.21183e-11
2.69592e-12
4.26643e-11
3.09746e-12
4.32849e-11
3.56649e-12
4.39936e-11
4.11234e-12
4.47979e-11
4.75734e-12
4.5718e-11
5.50975e-12
4.67597e-11
6.41477e-12
4.79516e-11
7.46928e-12
4.92965e-11
8.77182e-12
5.08282e-11
1.02805e-11
5.255e-11
1.22121e-11
5.44742e-11
1.44339e-11
2.91763e-11
1.73855e-11
2.74541e-11
-1.07037e-11
1.0092e-11
2.98044e-11
-2.86908e-11
2.92039e-11
-1.34651e-11
1.2943e-11
-2.98365e-11
3.03472e-11
-1.62747e-11
1.57768e-11
-3.08695e-11
3.12895e-11
-1.97757e-11
1.9378e-11
-3.16316e-11
3.18093e-11
-2.41159e-11
2.39621e-11
-1.68668e-11
-1.5334e-11
1.65069e-11
1.54114e-11
-1.57986e-11
-1.88561e-11
1.54098e-11
1.91555e-11
-1.39122e-11
-2.28291e-11
1.3217e-11
2.35016e-11
-1.04147e-11
-2.67155e-11
9.23321e-12
2.78934e-11
-4.98411e-12
3.1027e-11
-2.94171e-11
3.37344e-12
3.83652e-11
7.82848e-15
3.83713e-11
2.36107e-14
3.83815e-11
3.9771e-14
3.8396e-11
5.65684e-14
3.8415e-11
7.42731e-14
3.84389e-11
9.31705e-14
3.84679e-11
1.13567e-13
3.85027e-11
1.35794e-13
3.85437e-11
1.60217e-13
3.85916e-11
1.87237e-13
3.86471e-11
2.17305e-13
3.87112e-11
2.50924e-13
3.87849e-11
2.88663e-13
3.88694e-11
3.31169e-13
3.89661e-11
3.79178e-13
3.90765e-11
4.33532e-13
3.92025e-11
4.95201e-13
3.93461e-11
5.65301e-13
3.95098e-11
6.45127e-13
3.96962e-11
7.36183e-13
3.99087e-11
8.40221e-13
4.01507e-11
9.59302e-13
4.04264e-11
1.09583e-12
4.07408e-11
1.2527e-12
4.10993e-11
1.43325e-12
4.15082e-11
1.64165e-12
4.19754e-11
1.88257e-12
4.25088e-11
2.16232e-12
4.31195e-11
2.48729e-12
4.38177e-11
2.86782e-12
4.46192e-11
3.31202e-12
4.55367e-11
3.83853e-12
4.65936e-11
4.45562e-12
4.7805e-11
5.20023e-12
4.92047e-11
6.07513e-12
5.08126e-11
7.15755e-12
5.26715e-11
8.43138e-12
5.48161e-11
1.00571e-11
5.72816e-11
1.19819e-11
3.08358e-11
1.45125e-11
2.93033e-11
-9.36129e-12
8.51721e-12
3.16929e-11
-3.09914e-11
3.1797e-11
-1.22838e-11
1.14666e-11
-3.27528e-11
3.36467e-11
-1.50964e-11
1.42091e-11
-3.46068e-11
3.55304e-11
-1.87394e-11
1.78289e-11
-3.64489e-11
3.72856e-11
-2.34965e-11
2.26719e-11
-2.02109e-11
-1.53479e-11
2.00758e-11
1.52152e-11
-2.00734e-11
-1.97962e-11
1.99049e-11
1.98813e-11
-1.90214e-11
-2.54262e-11
1.85029e-11
2.59147e-11
-1.52484e-11
-3.18528e-11
1.37907e-11
3.3329e-11
-7.85055e-12
3.94711e-11
-3.69907e-11
5.37464e-12
3.83801e-11
5.7017e-15
3.83865e-11
1.71965e-14
3.83973e-11
2.89668e-14
3.84127e-11
4.12018e-14
3.84329e-11
5.40984e-14
3.84582e-11
6.78648e-14
3.8489e-11
8.27246e-14
3.85259e-11
9.89201e-14
3.85694e-11
1.16717e-13
3.86202e-11
1.3641e-13
3.86792e-11
1.58328e-13
3.87473e-11
1.82838e-13
3.88256e-11
2.10359e-13
3.89155e-11
2.41362e-13
3.90183e-11
2.76388e-13
3.91358e-11
3.16055e-13
3.92699e-11
3.61076e-13
3.9423e-11
4.12271e-13
3.95975e-11
4.70593e-13
3.97966e-11
5.37152e-13
4.00236e-11
6.13244e-13
4.02825e-11
7.00392e-13
4.0578e-11
8.00384e-13
4.09154e-11
9.15364e-13
4.13009e-11
1.04783e-12
4.17417e-11
1.20089e-12
4.22464e-11
1.37806e-12
4.28245e-11
1.58408e-12
4.34884e-11
1.82381e-12
4.42508e-11
2.10506e-12
4.51295e-11
2.43414e-12
4.61419e-11
2.82517e-12
4.73142e-11
3.28507e-12
4.86706e-11
3.84167e-12
5.02497e-11
4.49934e-12
5.20877e-11
5.31549e-12
5.42393e-11
6.28533e-12
5.67649e-11
7.52556e-12
5.9736e-11
9.01832e-12
3.22566e-11
1.09819e-11
3.09999e-11
-7.56275e-12
6.50212e-12
3.3328e-11
-3.31382e-11
3.42521e-11
-1.04978e-11
9.37211e-12
-3.55526e-11
3.68746e-11
-1.31108e-11
1.17918e-11
-3.83365e-11
3.98684e-11
-1.66209e-11
1.50969e-11
-4.15102e-11
4.32232e-11
-2.14283e-11
1.97222e-11
-2.39755e-11
-1.43196e-11
2.42076e-11
1.38487e-11
-2.54437e-11
-1.95407e-11
2.5748e-11
1.91605e-11
-2.63926e-11
-2.7283e-11
2.72961e-11