/*--------------------------------*- C++ -*----------------------------------*\
| =========                 |                                                 |
| \\      /  F ield         | foam-extend: Open Source CFD                    |
|  \\    /   O peration     | Version:     4.0                                |
|   \\  /    A nd           | Web:         http://www.foam-extend.org         |
|    \\/     M anipulation  |                                                 |
\*---------------------------------------------------------------------------*/
FoamFile
{
    version     2.0;
    format      ascii;
    class       volVectorField;
    location    "0.0004";
    object      U;
}
// * * * * * * * * * * * * * * * * * * * * * * * * * * * * * * * * * * * * * //

dimensions      [0 1 -1 0 0 0 0];

internalField   nonuniform List<vector> 
28770
(
(0.00128746 3.75623e-08 0)
(0.0012873 1.1326e-07 0)
(0.001287 1.90687e-07 0)
(0.00128653 2.71021e-07 0)
(0.00128589 3.55484e-07 0)
(0.00128508 4.45354e-07 0)
(0.00128408 5.41983e-07 0)
(0.00128287 6.46819e-07 0)
(0.00128145 7.6142e-07 0)
(0.00127978 8.87478e-07 0)
(0.00127783 1.02683e-06 0)
(0.0012756 1.1815e-06 0)
(0.00127302 1.35369e-06 0)
(0.00127008 1.54584e-06 0)
(0.00126673 1.76061e-06 0)
(0.00126292 2.00093e-06 0)
(0.00125859 2.27003e-06 0)
(0.00125367 2.57142e-06 0)
(0.00124812 2.90895e-06 0)
(0.00124183 3.28682e-06 0)
(0.00123473 3.70954e-06 0)
(0.00122672 4.18199e-06 0)
(0.0012177 4.70938e-06 0)
(0.00120754 5.2972e-06 0)
(0.00119612 5.95124e-06 0)
(0.0011833 6.6774e-06 0)
(0.00116892 7.48183e-06 0)
(0.00115282 8.37032e-06 0)
(0.00113481 9.34898e-06 0)
(0.00111472 1.04225e-05 0)
(0.00109233 1.15965e-05 0)
(0.00106745 1.28727e-05 0)
(0.00103985 1.42558e-05 0)
(0.00100932 1.57417e-05 0)
(0.000975639 1.7334e-05 0)
(0.000938613 1.90187e-05 0)
(0.000898034 2.07978e-05 0)
(0.000853744 2.26439e-05 0)
(0.000805594 2.4556e-05 0)
(0.000753491 2.64922e-05 0)
(0.00069739 2.84444e-05 0)
(0.0006373 3.03608e-05 0)
(0.000573321 3.22215e-05 0)
(0.000505604 3.39724e-05 0)
(0.000434419 3.55826e-05 0)
(0.000360091 3.70021e-05 0)
(0.00028306 3.81964e-05 0)
(0.000203822 3.9126e-05 0)
(0.000122961 3.97638e-05 0)
(4.10983e-05 4.00879e-05 0)
(0.0012876 1.12129e-07 0)
(0.00128745 3.381e-07 0)
(0.00128715 5.69233e-07 0)
(0.00128669 8.09051e-07 0)
(0.00128606 1.0612e-06 0)
(0.00128526 1.32949e-06 0)
(0.00128428 1.61797e-06 0)
(0.00128309 1.93097e-06 0)
(0.00128168 2.27313e-06 0)
(0.00128004 2.64951e-06 0)
(0.00127812 3.06562e-06 0)
(0.00127592 3.52748e-06 0)
(0.00127338 4.0417e-06 0)
(0.00127048 4.61554e-06 0)
(0.00126718 5.257e-06 0)
(0.00126342 5.97485e-06 0)
(0.00125914 6.77872e-06 0)
(0.0012543 7.67917e-06 0)
(0.00124882 8.68773e-06 0)
(0.00124261 9.81694e-06 0)
(0.00123561 1.10804e-05 0)
(0.0012277 1.24927e-05 0)
(0.00121879 1.40696e-05 0)
(0.00120876 1.58274e-05 0)
(0.00119748 1.77838e-05 0)
(0.0011848 1.99564e-05 0)
(0.00117058 2.23639e-05 0)
(0.00115465 2.50237e-05 0)
(0.00113682 2.79544e-05 0)
(0.00111692 3.11701e-05 0)
(0.00109473 3.46883e-05 0)
(0.00107005 3.85141e-05 0)
(0.00104266 4.26624e-05 0)
(0.00101233 4.71208e-05 0)
(0.000978848 5.19009e-05 0)
(0.000942005 5.69609e-05 0)
(0.000901584 6.23079e-05 0)
(0.000857424 6.78603e-05 0)
(0.000809362 7.36143e-05 0)
(0.000757298 7.94479e-05 0)
(0.000701178 8.53326e-05 0)
(0.000640999 9.11182e-05 0)
(0.000576857 9.6739e-05 0)
(0.000508895 0.000102035 0)
(0.000437385 0.000106908 0)
(0.00036265 0.000111208 0)
(0.000285139 0.000114828 0)
(0.000205357 0.000117646 0)
(0.000123902 0.000119581 0)
(4.14156e-05 0.000120564 0)
(0.0012879 1.85043e-07 0)
(0.00128775 5.57958e-07 0)
(0.00128746 9.39398e-07 0)
(0.00128701 1.33518e-06 0)
(0.0012864 1.75133e-06 0)
(0.00128563 2.19414e-06 0)
(0.00128467 2.67031e-06 0)
(0.00128352 3.18697e-06 0)
(0.00128215 3.75182e-06 0)
(0.00128055 4.37322e-06 0)
(0.00127869 5.06027e-06 0)
(0.00127655 5.82295e-06 0)
(0.00127409 6.67221e-06 0)
(0.00127127 7.62007e-06 0)
(0.00126806 8.67977e-06 0)
(0.00126441 9.86588e-06 0)
(0.00126025 1.11944e-05 0)
(0.00125554 1.26828e-05 0)
(0.00125021 1.43504e-05 0)
(0.00124417 1.62179e-05 0)
(0.00123735 1.83081e-05 0)
(0.00122965 2.06453e-05 0)
(0.00122097 2.32558e-05 0)
(0.00121118 2.61673e-05 0)
(0.00120017 2.94089e-05 0)
(0.00118779 3.30108e-05 0)
(0.00117388 3.70043e-05 0)
(0.00115829 4.14191e-05 0)
(0.00114083 4.62872e-05 0)
(0.00112131 5.16327e-05 0)
(0.00109952 5.74864e-05 0)
(0.00107526 6.38571e-05 0)
(0.00104827 7.07735e-05 0)
(0.00101837 7.82126e-05 0)
(0.000985274 8.6202e-05 0)
(0.000948803 9.46644e-05 0)
(0.000908706 0.000103627 0)
(0.000864815 0.000112935 0)
(0.000816939 0.00012261 0)
(0.000764965 0.000132415 0)
(0.000708817 0.000142337 0)
(0.000648469 0.000152089 0)
(0.00058401 0.000161588 0)
(0.000515562 0.00017054 0)
(0.000443401 0.000178794 0)
(0.000367845 0.000186082 0)
(0.000289363 0.000192224 0)
(0.000208476 0.000197011 0)
(0.000125818 0.0002003 0)
(4.20609e-05 0.000201971 0)
(0.00128833 2.55231e-07 0)
(0.00128819 7.69597e-07 0)
(0.00128791 1.29574e-06 0)
(0.00128748 1.84168e-06 0)
(0.0012869 2.41574e-06 0)
(0.00128616 3.02664e-06 0)
(0.00128525 3.68361e-06 0)
(0.00128415 4.39652e-06 0)
(0.00128284 5.17602e-06 0)
(0.00128132 6.03366e-06 0)
(0.00127954 6.98206e-06 0)
(0.00127749 8.03503e-06 0)
(0.00127514 9.20775e-06 0)
(0.00127245 1.05169e-05 0)
(0.00126938 1.19809e-05 0)
(0.00126588 1.36199e-05 0)
(0.0012619 1.54562e-05 0)
(0.00125739 1.75142e-05 0)
(0.00125228 1.98207e-05 0)
(0.00124649 2.24049e-05 0)
(0.00123994 2.52985e-05 0)
(0.00123255 2.85357e-05 0)
(0.0012242 3.21533e-05 0)
(0.00121478 3.61905e-05 0)
(0.00120418 4.06887e-05 0)
(0.00119224 4.56905e-05 0)
(0.00117881 5.12409e-05 0)
(0.00116374 5.73823e-05 0)
(0.00114682 6.41615e-05 0)
(0.00112789 7.16131e-05 0)
(0.0011067 7.97842e-05 0)
(0.00108306 8.86868e-05 0)
(0.00105671 9.83686e-05 0)
(0.00102744 0.000108794 0)
(0.000994957 0.000120015 0)
(0.000959067 0.000131915 0)
(0.000919474 0.000144549 0)
(0.000876011 0.000157691 0)
(0.000828436 0.000171385 0)
(0.000776615 0.000185292 0)
(0.000720442 0.000199402 0)
(0.000659849 0.000213304 0)
(0.000594924 0.000226878 0)
(0.000525743 0.000239702 0)
(0.000452603 0.000251551 0)
(0.000375801 0.000262032 0)
(0.000295841 0.000270883 0)
(0.000213264 0.000277789 0)
(0.000128759 0.000282538 0)
(4.30522e-05 0.000284953 0)
(0.0012889 3.21644e-07 0)
(0.00128877 9.6986e-07 0)
(0.00128851 1.63293e-06 0)
(0.00128811 2.321e-06 0)
(0.00128756 3.04457e-06 0)
(0.00128687 3.81464e-06 0)
(0.00128601 4.64287e-06 0)
(0.00128498 5.54175e-06 0)
(0.00128375 6.52473e-06 0)
(0.00128232 7.60645e-06 0)
(0.00128065 8.80287e-06 0)
(0.00127873 1.01315e-05 0)
(0.00127652 1.16116e-05 0)
(0.00127399 1.32643e-05 0)
(0.0012711 1.5113e-05 0)
(0.00126781 1.71835e-05 0)
(0.00126407 1.95041e-05 0)
(0.00125982 2.2106e-05 0)
(0.001255 2.50234e-05 0)
(0.00124954 2.82938e-05 0)
(0.00124335 3.19579e-05 0)
(0.00123636 3.60598e-05 0)
(0.00122846 4.06472e-05 0)
(0.00121954 4.57707e-05 0)
(0.00120947 5.14846e-05 0)
(0.00119812 5.78445e-05 0)
(0.00118533 6.49102e-05 0)
(0.00117094 7.27376e-05 0)
(0.00115477 8.13906e-05 0)
(0.00113661 9.09152e-05 0)
(0.00111624 0.000101379 0)
(0.00109345 0.000112798 0)
(0.00106796 0.000125247 0)
(0.00103956 0.000138672 0)
(0.00100791 0.000153172 0)
(0.000972826 0.000168563 0)
(0.000933945 0.000184986 0)
(0.000891092 0.000202066 0)
(0.000843966 0.000219982 0)
(0.000792398 0.000238152 0)
(0.000736245 0.000256721 0)
(0.000675373 0.000274996 0)
(0.000609858 0.000292945 0)
(0.000539721 0.000309908 0)
(0.000465266 0.000325649 0)
(0.000386774 0.000339594 0)
(0.000304792 0.000351403 0)
(0.000219889 0.00036063 0)
(0.000132833 0.000366987 0)
(4.44258e-05 0.000370222 0)
(0.0012896 3.83299e-07 0)
(0.00128948 1.15578e-06 0)
(0.00128923 1.946e-06 0)
(0.00128887 2.76607e-06 0)
(0.00128837 3.62851e-06 0)
(0.00128773 4.54649e-06 0)
(0.00128694 5.53395e-06 0)
(0.00128599 6.6058e-06 0)
(0.00128487 7.77816e-06 0)
(0.00128355 9.06856e-06 0)
(0.00128201 1.04961e-05 0)
(0.00128024 1.20819e-05 0)
(0.00127821 1.38489e-05 0)
(0.00127588 1.58227e-05 0)
(0.00127321 1.80314e-05 0)
(0.00127018 2.0506e-05 0)
(0.00126672 2.32809e-05 0)
(0.00126279 2.63938e-05 0)
(0.00125834 2.98862e-05 0)
(0.00125328 3.38037e-05 0)
(0.00124755 3.81959e-05 0)
(0.00124106 4.3117e-05 0)
(0.00123371 4.86255e-05 0)
(0.0012254 5.47839e-05 0)
(0.001216 6.16596e-05 0)
(0.00120538 6.93221e-05 0)
(0.00119339 7.78467e-05 0)
(0.00117987 8.73042e-05 0)
(0.00116462 9.77776e-05 0)
(0.00114746 0.000109326 0)
(0.00112813 0.000122041 0)
(0.00110643 0.000135941 0)
(0.00108205 0.00015114 0)
(0.00105478 0.000167562 0)
(0.00102423 0.000185362 0)
(0.000990218 0.000204296 0)
(0.000952278 0.000224582 0)
(0.000910277 0.000245735 0)
(0.00086377 0.000268015 0)
(0.000812589 0.000290703 0)
(0.000756518 0.00031397 0)
(0.000695317 0.000336993 0)
(0.000629108 0.000359684 0)
(0.000557766 0.000381233 0)
(0.000481669 0.000401296 0)
(0.000401018 0.000419135 0)
(0.000316439 0.000434285 0)
(0.000228523 0.000446154 0)
(0.000138151 0.000454345 0)
(4.62197e-05 0.000458517 0)
(0.00129041 4.39277e-07 0)
(0.0012903 1.32459e-06 0)
(0.00129008 2.23027e-06 0)
(0.00128975 3.17023e-06 0)
(0.00128931 4.15887e-06 0)
(0.00128873 5.21132e-06 0)
(0.00128803 6.34359e-06 0)
(0.00128718 7.57288e-06 0)
(0.00128617 8.91774e-06 0)
(0.00128498 1.03984e-05 0)
(0.0012836 1.20368e-05 0)
(0.00128201 1.38574e-05 0)
(0.00128018 1.58868e-05 0)
(0.00127809 1.81546e-05 0)
(0.00127569 2.06934e-05 0)
(0.00127295 2.35392e-05 0)
(0.00126983 2.67321e-05 0)
(0.00126629 3.03161e-05 0)
(0.00126225 3.43399e-05 0)
(0.00125767 3.88567e-05 0)
(0.00125247 4.39253e-05 0)
(0.00124658 4.96096e-05 0)
(0.00123989 5.59791e-05 0)
(0.0012323 6.31087e-05 0)
(0.00122371 7.10794e-05 0)
(0.00121397 7.9975e-05 0)
(0.00120294 8.98884e-05 0)
(0.00119046 0.000100906 0)
(0.00117633 0.000113134 0)
(0.00116037 0.000126643 0)
(0.0011423 0.000141561 0)
(0.00112195 0.000157905 0)
(0.00109892 0.000175848 0)
(0.00107307 0.000195269 0)
(0.00104388 0.000216448 0)
(0.00101123 0.000238981 0)
(0.000974522 0.000263354 0)
(0.00093362 0.000288698 0)
(0.000887997 0.000315761 0)
(0.000837396 0.000343148 0)
(0.000781571 0.000371687 0)
(0.000720135 0.00039976 0)
(0.000653177 0.000427747 0)
(0.000580466 0.000454303 0)
(0.000502379 0.000479216 0)
(0.000419077 0.000501416 0)
(0.000331248 0.000520362 0)
(0.00023953 0.000535239 0)
(0.000144939 0.000545536 0)
(4.85119e-05 0.000550787 0)
(0.00129132 4.88728e-07 0)
(0.00129123 1.47372e-06 0)
(0.00129104 2.48142e-06 0)
(0.00129075 3.52736e-06 0)
(0.00129037 4.62761e-06 0)
(0.00128987 5.79903e-06 0)
(0.00128925 7.05955e-06 0)
(0.00128851 8.42835e-06 0)
(0.00128763 9.92621e-06 0)
(0.0012866 1.15757e-05 0)
(0.0012854 1.34017e-05 0)
(0.00128401 1.54313e-05 0)
(0.00128242 1.76947e-05 0)
(0.00128058 2.02249e-05 0)
(0.00127849 2.3059e-05 0)
(0.00127609 2.62377e-05 0)
(0.00127336 2.98061e-05 0)
(0.00127024 3.38145e-05 0)
(0.0012667 3.8318e-05 0)
(0.00126266 4.33779e-05 0)
(0.00125808 4.90614e-05 0)
(0.00125286 5.54422e-05 0)
(0.00124693 6.26009e-05 0)
(0.00124018 7.06245e-05 0)
(0.00123251 7.96084e-05 0)
(0.0012238 8.96512e-05 0)
(0.00121389 0.000100864 0)
(0.00120263 0.000113351 0)
(0.00118982 0.000127243 0)
(0.00117529 0.000142626 0)
(0.00115874 0.000159665 0)
(0.00114001 0.000178381 0)
(0.00111863 0.000199008 0)
(0.00109454 0.000221397 0)
(0.00106703 0.000245926 0)
(0.00103615 0.000272115 0)
(0.00100096 0.000300574 0)
(0.000961593 0.00033033 0)
(0.000917086 0.000362204 0)
(0.00086735 0.000394767 0)
(0.000811951 0.000428725 0)
(0.000750209 0.000462566 0)
(0.000682516 0.000496375 0)
(0.000608163 0.000528773 0)
(0.0005278 0.00055927 0)
(0.000441306 0.000586628 0)
(0.000349558 0.000610063 0)
(0.000253173 0.000628547 0)
(0.000153375 0.00064137 0)
(5.13622e-05 0.000647925 0)
(0.00129233 5.30903e-07 0)
(0.00129225 1.60092e-06 0)
(0.00129209 2.69567e-06 0)
(0.00129186 3.83206e-06 0)
(0.00129153 5.02762e-06 0)
(0.00129111 6.30074e-06 0)
(0.0012906 7.67095e-06 0)
(0.00128998 9.15924e-06 0)
(0.00128925 1.07883e-05 0)
(0.00128838 1.25828e-05 0)
(0.00128738 1.457e-05 0)
(0.00128622 1.67797e-05 0)
(0.00128488 1.92449e-05 0)
(0.00128334 2.20022e-05 0)
(0.00128157 2.50923e-05 0)
(0.00127956 2.85602e-05 0)
(0.00127725 3.2456e-05 0)
(0.00127462 3.68353e-05 0)
(0.00127162 4.176e-05 0)
(0.00126819 4.72984e-05 0)
(0.00126429 5.35261e-05 0)
(0.00125983 6.05261e-05 0)
(0.00125475 6.83903e-05 0)
(0.00124895 7.72179e-05 0)
(0.00124234 8.71188e-05 0)
(0.00123478 9.82075e-05 0)
(0.00122614 0.000110615 0)
(0.00121629 0.000124464 0)
(0.00120499 0.000139914 0)
(0.00119212 0.000157068 0)
(0.00117731 0.000176142 0)
(0.00116047 0.000197148 0)
(0.00114104 0.000220435 0)
(0.00111901 0.000245748 0)
(0.00109354 0.000273758 0)
(0.00106474 0.00030359 0)
(0.00103152 0.000336588 0)
(0.000993966 0.000370716 0)
(0.000951091 0.000408369 0)
(0.00090253 0.000446011 0)
(0.000847956 0.000486741 0)
(0.000786375 0.000526503 0)
(0.000718003 0.000567117 0)
(0.00064205 0.000605857 0)
(0.000559029 0.000642791 0)
(0.000468811 0.000676019 0)
(0.000372292 0.000704698 0)
(0.000270184 0.000727404 0)
(0.000163913 0.000743224 0)
(5.49296e-05 0.000751326 0)
(0.00129341 5.65156e-07 0)
(0.00129335 1.70423e-06 0)
(0.00129323 2.86971e-06 0)
(0.00129304 4.07965e-06 0)
(0.00129278 5.35276e-06 0)
(0.00129246 6.7087e-06 0)
(0.00129205 8.16838e-06 0)
(0.00129156 9.75425e-06 0)
(0.00129098 1.14906e-05 0)
(0.0012903 1.3404e-05 0)
(0.00128951 1.55236e-05 0)
(0.00128859 1.78815e-05 0)
(0.00128753 2.05133e-05 0)
(0.00128631 2.34585e-05 0)
(0.00128491 2.67611e-05 0)
(0.0012833 3.04699e-05 0)
(0.00128146 3.46394e-05 0)
(0.00127935 3.93304e-05 0)
(0.00127694 4.46105e-05 0)
(0.00127419 5.05546e-05 0)
(0.00127103 5.72464e-05 0)
(0.00126741 6.47779e-05 0)
(0.00126327 7.32516e-05 0)
(0.00125852 8.27789e-05 0)
(0.00125307 9.34843e-05 0)
(0.00124681 0.000105498 0)
(0.0012396 0.000118972 0)
(0.00123132 0.000134048 0)
(0.00122175 0.000150916 0)
(0.00121077 0.0001697 0)
(0.00119798 0.000190663 0)
(0.00118338 0.000213831 0)
(0.00116622 0.000239625 0)
(0.00114675 0.000267791 0)
(0.00112366 0.00029909 0)
(0.00109767 0.000332661 0)
(0.00106669 0.000369859 0)
(0.00103188 0.000408846 0)
(0.000990813 0.000451632 0)
(0.00094409 0.000495474 0)
(0.000890767 0.000542257 0)
(0.000828911 0.000589497 0)
(0.000760217 0.000637485 0)
(0.000682262 0.00068417 0)
(0.000596502 0.000728742 0)
(0.000501923 0.000769298 0)
(0.000399873 0.000804456 0)
(0.000290897 0.00083249 0)
(0.000176799 0.000852088 0)
(5.92956e-05 0.000862159 0)
(0.00129455 5.90947e-07 0)
(0.00129451 1.78203e-06 0)
(0.00129442 3.0008e-06 0)
(0.00129429 4.2662e-06 0)
(0.0012941 5.59788e-06 0)
(0.00129387 7.01647e-06 0)
(0.00129358 8.54394e-06 0)
(0.00129324 1.02039e-05 0)
(0.00129282 1.20219e-05 0)
(0.00129233 1.40261e-05 0)
(0.00129176 1.6247e-05 0)
(0.0012911 1.87188e-05 0)
(0.00129034 2.14791e-05 0)
(0.00128946 2.45698e-05 0)
(0.00128844 2.80377e-05 0)
(0.00128727 3.19349e-05 0)
(0.00128593 3.63197e-05 0)
(0.00128438 4.12572e-05 0)
(0.00128261 4.68202e-05 0)
(0.00128057 5.30899e-05 0)
(0.00127821 6.01569e-05 0)
(0.0012755 6.81219e-05 0)
(0.00127238 7.70974e-05 0)
(0.00126877 8.72067e-05 0)
(0.00126458 9.85887e-05 0)
(0.00125974 0.00011139 0)
(0.0012541 0.000125784 0)
(0.00124757 0.000141933 0)
(0.0012399 0.000160062 0)
(0.00123103 0.000180314 0)
(0.00122052 0.000203023 0)
(0.00120841 0.000228194 0)
(0.00119388 0.000256441 0)
(0.00117724 0.000287297 0)
(0.00115706 0.00032212 0)
(0.00113403 0.000359158 0)
(0.00110612 0.000401559 0)
(0.00107404 0.000444688 0)
(0.00103592 0.000495139 0)
(0.000991267 0.000543685 0)
(0.00094002 0.000600393 0)
(0.00087962 0.000654337 0)
(0.000810705 0.000711374 0)
(0.000731407 0.000766318 0)
(0.000642383 0.000819804 0)
(0.000542947 0.000868736 0)
(0.000434168 0.000911595 0)
(0.000316825 0.000945989 0)
(0.000192964 0.000970173 0)
(6.47908e-05 0.000982644 0)
(0.00129573 6.07867e-07 0)
(0.00129571 1.83308e-06 0)
(0.00129566 3.08686e-06 0)
(0.00129558 4.38877e-06 0)
(0.00129548 5.75906e-06 0)
(0.00129534 7.21909e-06 0)
(0.00129517 8.79155e-06 0)
(0.00129497 1.05009e-05 0)
(0.00129473 1.23736e-05 0)
(0.00129444 1.44388e-05 0)
(0.00129411 1.67283e-05 0)
(0.00129371 1.92776e-05 0)
(0.00129326 2.21259e-05 0)
(0.00129273 2.5317e-05 0)
(0.00129212 2.88999e-05 0)
(0.00129141 3.29293e-05 0)
(0.00129059 3.74665e-05 0)
(0.00128964 4.25804e-05 0)
(0.00128853 4.8348e-05 0)
(0.00128724 5.48559e-05 0)
(0.00128575 6.22011e-05 0)
(0.001284 7.04917e-05 0)
(0.00128196 7.98495e-05 0)
(0.00127956 9.04088e-05 0)
(0.00127675 0.000102322 0)
(0.00127344 0.000115752 0)
(0.00126951 0.000130893 0)
(0.00126489 0.000147928 0)
(0.00125933 0.000167115 0)
(0.00125283 0.000188627 0)
(0.00124487 0.000212841 0)
(0.00123568 0.000239814 0)
(0.00122409 0.000270195 0)
(0.00121106 0.000303644 0)
(0.00119403 0.000341435 0)
(0.00117545 0.000382232 0)
(0.00115043 0.00042856 0)
(0.00112351 0.000477196 0)
(0.00108775 0.000532392 0)
(0.00104715 0.00058892 0)
(0.000999112 0.000651012 0)
(0.000937578 0.000715479 0)
(0.000869862 0.000782063 0)
(0.000788431 0.000848428 0)
(0.000696785 0.000912873 0)
(0.000591801 0.000972783 0)
(0.000475515 0.00102562 0)
(0.000348254 0.00106845 0)
(0.00021269 0.00109873 0)
(7.15061e-05 0.00111442 0)
(0.00129694 6.15633e-07 0)
(0.00129694 1.85653e-06 0)
(0.00129692 3.12645e-06 0)
(0.0012969 4.44526e-06 0)
(0.00129688 5.83358e-06 0)
(0.00129684 7.31311e-06 0)
(0.0012968 8.90696e-06 0)
(0.00129674 1.064e-05 0)
(0.00129668 1.25394e-05 0)
(0.0012966 1.46347e-05 0)
(0.0012965 1.69587e-05 0)
(0.00129639 1.95475e-05 0)
(0.00129625 2.24416e-05 0)
(0.00129609 2.56859e-05 0)
(0.00129589 2.93309e-05 0)
(0.00129566 3.34333e-05 0)
(0.00129538 3.80566e-05 0)
(0.00129504 4.32724e-05 0)
(0.00129463 4.91614e-05 0)
(0.00129413 5.58141e-05 0)
(0.00129352 6.33328e-05 0)
(0.00129279 7.18323e-05 0)
(0.00129188 8.14423e-05 0)
(0.00129077 9.2307e-05 0)
(0.0012894 0.000104592 0)
(0.00128771 0.000118474 0)
(0.00128561 0.000134168 0)
(0.00128303 0.000151881 0)
(0.00127975 0.000171902 0)
(0.00127581 0.000194433 0)
(0.00127065 0.000219926 0)
(0.00126457 0.000248423 0)
(0.00125638 0.000280814 0)
(0.00124699 0.000316473 0)
(0.00123401 0.000357587 0)
(0.00121934 0.000401299 0)
(0.00119911 0.000453592 0)
(0.00117571 0.000505172 0)
(0.00114531 0.000571762 0)
(0.00110742 0.000629549 0)
(0.00106394 0.000709685 0)
(0.00100794 0.000780949 0)
(0.000940886 0.000858789 0)
(0.000859493 0.000936185 0)
(0.000764149 0.00101319 0)
(0.000653342 0.00108583 0)
(0.000527844 0.00115059 0)
(0.000388419 0.00120367 0)
(0.000237978 0.00124148 0)
(8.01538e-05 0.00126118 0)
(0.00129816 6.141e-07 0)
(0.00129817 1.85193e-06 0)
(0.00129819 3.11881e-06 0)
(0.00129823 4.43462e-06 0)
(0.00129828 5.81999e-06 0)
(0.00129835 7.29668e-06 0)
(0.00129843 8.88787e-06 0)
(0.00129853 1.06186e-05 0)
(0.00129864 1.25159e-05 0)
(0.00129877 1.46098e-05 0)
(0.00129892 1.69332e-05 0)
(0.00129908 1.95227e-05 0)
(0.00129927 2.24189e-05 0)
(0.00129948 2.56677e-05 0)
(0.00129971 2.93202e-05 0)
(0.00129995 3.34341e-05 0)
(0.00130022 3.80744e-05 0)
(0.00130051 4.33144e-05 0)
(0.00130081 4.92371e-05 0)
(0.00130112 5.5936e-05 0)
(0.00130143 6.35174e-05 0)
(0.00130173 7.21009e-05 0)
(0.00130201 8.18228e-05 0)
(0.00130223 9.28359e-05 0)
(0.00130237 0.000105315 0)
(0.0013024 0.000119454 0)
(0.00130222 0.000135481 0)
(0.00130183 0.000153629 0)
(0.001301 0.00017421 0)
(0.00129986 0.000197477 0)
(0.00129773 0.000223891 0)
(0.0012953 0.000253626 0)
(0.00129072 0.000287493 0)
(0.00128624 0.000325251 0)
(0.00127709 0.000368598 0)
(0.00126946 0.000415951 0)
(0.00125214 0.00047122 0)
(0.00123922 0.000529321 0)
(0.00120953 0.00059865 0)
(0.0011822 0.000668082 0)
(0.00114736 0.000747024 0)
(0.00108358 0.000834657 0)
(0.00102187 0.000926199 0)
(0.000939611 0.00102038 0)
(0.000843311 0.00111386 0)
(0.000726343 0.00120337 0)
(0.000590899 0.00128448 0)
(0.000437248 0.00135186 0)
(0.000269008 0.00140032 0)
(9.08023e-05 0.00142573 0)
(0.00129936 6.0326e-07 0)
(0.00129939 1.81927e-06 0)
(0.00129945 3.06391e-06 0)
(0.00129955 4.35676e-06 0)
(0.00129968 5.71818e-06 0)
(0.00129984 7.16964e-06 0)
(0.00130005 8.73402e-06 0)
(0.00130029 1.0436e-05 0)
(0.00130058 1.23026e-05 0)
(0.00130092 1.43633e-05 0)
(0.00130131 1.66507e-05 0)
(0.00130176 1.92013e-05 0)
(0.00130227 2.20557e-05 0)
(0.00130285 2.52594e-05 0)
(0.0013035 2.88637e-05 0)
(0.00130423 3.29263e-05 0)
(0.00130505 3.75127e-05 0)
(0.00130597 4.26969e-05 0)
(0.00130699 4.85627e-05 0)
(0.00130811 5.52055e-05 0)
(0.00130935 6.27336e-05 0)
(0.00131071 7.12702e-05 0)
(0.00131218 8.09558e-05 0)
(0.00131377 9.19496e-05 0)
(0.00131546 0.000104435 0)
(0.00131725 0.000118617 0)
(0.00131907 0.000134736 0)
(0.00132096 0.000153052 0)
(0.00132269 0.000173894 0)
(0.00132445 0.000197561 0)
(0.00132562 0.000224547 0)
(0.00132685 0.000255094 0)
(0.00132651 0.000290109 0)
(0.00132641 0.000329342 0)
(0.00132282 0.000375028 0)
(0.00131983 0.000424603 0)
(0.00131012 0.000485393 0)
(0.00130048 0.000544714 0)
(0.00128118 0.000631562 0)
(0.0012527 0.000687612 0)
(0.00122705 0.000810553 0)
(0.00118338 0.000904463 0)
(0.00112274 0.00100217 0)
(0.00104324 0.00111205 0)
(0.000943324 0.00122346 0)
(0.000820398 0.00133397 0)
(0.00067324 0.0014346 0)
(0.000501848 0.00151948 0)
(0.000310301 0.00158122 0)
(0.00010503 0.00161392 0)
(0.00130053 5.8325e-07 0)
(0.00130058 1.75895e-06 0)
(0.00130068 2.96242e-06 0)
(0.00130083 4.21264e-06 0)
(0.00130104 5.52938e-06 0)
(0.0013013 6.93348e-06 0)
(0.00130163 8.44718e-06 0)
(0.00130202 1.00945e-05 0)
(0.00130248 1.19017e-05 0)
(0.00130303 1.38975e-05 0)
(0.00130365 1.61139e-05 0)
(0.00130438 1.85865e-05 0)
(0.0013052 2.13549e-05 0)
(0.00130614 2.4464e-05 0)
(0.00130721 2.79642e-05 0)
(0.00130842 3.19124e-05 0)
(0.00130979 3.63734e-05 0)
(0.00131133 4.14205e-05 0)
(0.00131306 4.71374e-05 0)
(0.001315 5.36193e-05 0)
(0.00131716 6.0975e-05 0)
(0.00131958 6.9329e-05 0)
(0.00132225 7.88237e-05 0)
(0.00132522 8.96224e-05 0)
(0.00132848 0.000101913 0)
(0.00133207 0.000115909 0)
(0.00133593 0.000131862 0)
(0.00134018 0.000150052 0)
(0.00134458 0.000170816 0)
(0.00134945 0.000194514 0)
(0.00135407 0.000221622 0)
(0.0013595 0.000252558 0)
(0.00136343 0.000288072 0)
(0.00136939 0.000328467 0)
(0.00137036 0.000375261 0)
(0.00137752 0.00042773 0)
(0.00136975 0.000490275 0)
(0.00138234 0.000556848 0)
(0.00134945 0.00064456 0)
(0.0013885 0.000721232 0)
(0.00136435 0.000805642 0)
(0.00123821 0.000793429 0)
(0.00120937 0.000914238 0)
(0.00115112 0.00104628 0)
(0.00106531 0.00118457 0)
(0.000948831 0.00132556 0)
(0.000799632 0.00146402 0)
(0.000619533 0.00159006 0)
(0.000411691 0.00169267 0)
(0.000182946 0.00176234 0)
(0.00130165 5.54347e-07 0)
(0.00130172 1.67181e-06 0)
(0.00130185 2.81574e-06 0)
(0.00130206 4.00424e-06 0)
(0.00130234 5.25616e-06 0)
(0.0013027 6.59139e-06 0)
(0.00130314 8.03118e-06 0)
(0.00130368 9.59851e-06 0)
(0.00130431 1.13184e-05 0)
(0.00130505 1.32186e-05 0)
(0.0013059 1.53296e-05 0)
(0.00130689 1.76856e-05 0)
(0.00130802 2.03249e-05 0)
(0.00130932 2.32906e-05 0)
(0.00131079 2.66315e-05 0)
(0.00131246 3.04028e-05 0)
(0.00131436 3.46672e-05 0)
(0.00131651 3.94965e-05 0)
(0.00131893 4.49722e-05 0)
(0.00132166 5.11879e-05 0)
(0.00132473 5.82508e-05 0)
(0.00132819 6.62842e-05 0)
(0.00133205 7.54298e-05 0)
(0.00133638 8.58517e-05 0)
(0.0013412 9.77382e-05 0)
(0.00134658 0.00011131 0)
(0.0013525 0.000126817 0)
(0.0013591 0.000144562 0)
(0.00136622 0.000164877 0)
(0.0013742 0.000188185 0)
(0.00138246 0.000214904 0)
(0.00139191 0.000245683 0)
(0.00140084 0.000280945 0)
(0.00141178 0.000321871 0)
(0.00142002 0.000368392 0)
(0.00143245 0.000423446 0)
(0.00143654 0.000483961 0)
(0.00145155 0.000560183 0)
(0.00144214 0.00063362 0)
(0.00146901 0.000749052 0)
(0.00151424 0.000818454 0)
(0.00135342 0.000877336 0)
(0.00133491 0.00101386 0)
(0.00128662 0.00116464 0)
(0.00120682 0.00132585 0)
(0.00109163 0.00149085 0)
(0.000929936 0.00166044 0)
(0.000729 0.00181542 0)
(0.000488877 0.00194002 0)
(0.000217726 0.00201988 0)
(0.00130271 5.16969e-07 0)
(0.00130279 1.55911e-06 0)
(0.00130296 2.62599e-06 0)
(0.00130322 3.73456e-06 0)
(0.00130357 4.90245e-06 0)
(0.00130402 6.14828e-06 0)
(0.00130457 7.49196e-06 0)
(0.00130524 8.95503e-06 0)
(0.00130603 1.0561e-05 0)
(0.00130695 1.23359e-05 0)
(0.00130803 1.43085e-05 0)
(0.00130927 1.65109e-05 0)
(0.00131069 1.89793e-05 0)
(0.00131232 2.17545e-05 0)
(0.00131418 2.48827e-05 0)
(0.00131629 2.84163e-05 0)
(0.00131869 3.2415e-05 0)
(0.00132142 3.69473e-05 0)
(0.00132451 4.20912e-05 0)
(0.001328 4.79369e-05 0)
(0.00133194 5.45876e-05 0)
(0.0013364 6.21631e-05 0)
(0.00134141 7.08013e-05 0)
(0.00134706 8.06631e-05 0)
(0.00135341 9.1934e-05 0)
(0.00136054 0.000104834 0)
(0.00136849 0.000119613 0)
(0.00137744 0.000136581 0)
(0.00138729 0.000156066 0)
(0.00139844 0.000178527 0)
(0.00141037 0.000204375 0)
(0.00142416 0.000234341 0)
(0.00143803 0.000268845 0)
(0.00145501 0.000309205 0)
(0.00146982 0.000355501 0)
(0.00149068 0.000410544 0)
(0.00150364 0.000472606 0)
(0.00152888 0.000549194 0)
(0.00153439 0.000630172 0)
(0.00156049 0.000741967 0)
(0.00165066 0.00081851 0)
(0.0014856 0.000928249 0)
(0.0014821 0.00108096 0)
(0.00144856 0.00125452 0)
(0.00138095 0.00144531 0)
(0.00127997 0.00163327 0)
(0.00109736 0.0018561 0)
(0.000874958 0.0020593 0)
(0.000594683 0.0022236 0)
(0.000265824 0.00232751 0)
(0.00130368 4.71661e-07 0)
(0.00130378 1.42249e-06 0)
(0.00130398 2.39594e-06 0)
(0.00130429 3.40752e-06 0)
(0.00130471 4.47338e-06 0)
(0.00130524 5.61056e-06 0)
(0.00130589 6.8373e-06 0)
(0.00130668 8.17335e-06 0)
(0.00130762 9.64032e-06 0)
(0.00130872 1.1262e-05 0)
(0.00130999 1.3065e-05 0)
(0.00131146 1.50789e-05 0)
(0.00131316 1.7337e-05 0)
(0.0013151 1.9877e-05 0)
(0.00131731 2.27417e-05 0)
(0.00131984 2.59796e-05 0)
(0.00132272 2.96464e-05 0)
(0.00132598 3.38058e-05 0)
(0.00132969 3.85309e-05 0)
(0.0013339 4.39061e-05 0)
(0.00133866 5.00288e-05 0)
(0.00134406 5.7012e-05 0)
(0.00135017 6.49868e-05 0)
(0.00135707 7.41071e-05 0)
(0.00136487 8.45502e-05 0)
(0.00137368 9.65307e-05 0)
(0.00138358 0.000110288 0)
(0.00139479 0.000126133 0)
(0.0014073 0.000144379 0)
(0.0014215 0.000165511 0)
(0.00143711 0.000189889 0)
(0.00145504 0.000218375 0)
(0.00147414 0.000251186 0)
(0.00149663 0.000290144 0)
(0.00151925 0.000334536 0)
(0.00154711 0.00038891 0)
(0.00157231 0.000448922 0)
(0.00160583 0.000527018 0)
(0.0016309 0.000607186 0)
(0.00166713 0.000723202 0)
(0.00177916 0.000801182 0)
(0.00163182 0.000947077 0)
(0.00165033 0.00111587 0)
(0.00163867 0.00131594 0)
(0.00158547 0.0015551 0)
(0.00151932 0.00186434 0)
(0.0013348 0.00214516 0)
(0.00106841 0.00241637 0)
(0.000711282 0.00264395 0)
(0.000276229 0.00278288 0)
(0.00130456 4.19107e-07 0)
(0.00130468 1.264e-06 0)
(0.00130491 2.12905e-06 0)
(0.00130525 3.02806e-06 0)
(0.00130573 3.97542e-06 0)
(0.00130633 4.98631e-06 0)
(0.00130708 6.07702e-06 0)
(0.00130798 7.26518e-06 0)
(0.00130905 8.57008e-06 0)
(0.00131031 1.0013e-05 0)
(0.00131176 1.16178e-05 0)
(0.00131345 1.34108e-05 0)
(0.00131539 1.54222e-05 0)
(0.00131761 1.76856e-05 0)
(0.00132015 2.02397e-05 0)
(0.00132305 2.31282e-05 0)
(0.00132636 2.64014e-05 0)
(0.00133012 3.01171e-05 0)
(0.0013344 3.43416e-05 0)
(0.00133926 3.91519e-05 0)
(0.00134478 4.46369e-05 0)
(0.00135104 5.09005e-05 0)
(0.00135815 5.80633e-05 0)
(0.00136622 6.62681e-05 0)
(0.00137536 7.56797e-05 0)
(0.00138574 8.64996e-05 0)
(0.00139748 9.89527e-05 0)
(0.00141082 0.000113336 0)
(0.00142585 0.000129949 0)
(0.001443 0.000149261 0)
(0.00146213 0.000171633 0)
(0.00148418 0.000197892 0)
(0.0015083 0.000228342 0)
(0.00153662 0.000264631 0)
(0.00156653 0.00030655 0)
(0.00160269 0.000357744 0)
(0.00163887 0.000416086 0)
(0.00168385 0.000490182 0)
(0.00172648 0.000572149 0)
(0.00177772 0.000682503 0)
(0.00190896 0.000760804 0)
(0.0017907 0.000932961 0)
(0.00183912 0.00111429 0)
(0.00186271 0.00133465 0)
(0.00185168 0.00159782 0)
(0.00183485 0.00197964 0)
(0.00167319 0.00235063 0)
(0.00138957 0.00273711 0)
(0.000960696 0.00308308 0)
(0.000393162 0.00330562 0)
(0.00130533 3.60091e-07 0)
(0.00130546 1.08602e-06 0)
(0.00130571 1.82931e-06 0)
(0.0013061 2.60183e-06 0)
(0.00130662 3.41598e-06 0)
(0.0013073 4.28485e-06 0)
(0.00130812 5.22246e-06 0)
(0.00130912 6.24404e-06 0)
(0.00131031 7.36623e-06 0)
(0.0013117 8.60746e-06 0)
(0.00131332 9.98822e-06 0)
(0.00131519 1.15315e-05 0)
(0.00131734 1.32633e-05 0)
(0.00131981 1.52129e-05 0)
(0.00132264 1.74138e-05 0)
(0.00132587 1.99041e-05 0)
(0.00132956 2.27278e-05 0)
(0.00133376 2.59352e-05 0)
(0.00133854 2.95845e-05 0)
(0.00134398 3.37432e-05 0)
(0.00135017 3.84897e-05 0)
(0.00135721 4.39158e-05 0)
(0.00136521 5.01284e-05 0)
(0.00137432 5.72548e-05 0)
(0.00138468 6.54421e-05 0)
(0.00139647 7.48719e-05 0)
(0.00140986 8.57469e-05 0)
(0.00142514 9.83391e-05 0)
(0.00144247 0.000112919 0)
(0.00146232 0.000129929 0)
(0.00148473 0.000149691 0)
(0.00151057 0.000173011 0)
(0.00153949 0.000200141 0)
(0.00157321 0.000232738 0)
(0.00161042 0.000270521 0)
(0.00165436 0.000317225 0)
(0.00170198 0.000370762 0)
(0.00175865 0.000439635 0)
(0.00181921 0.000517371 0)
(0.00188966 0.000621689 0)
(0.00203489 0.000693255 0)
(0.00195753 0.000883699 0)
(0.00204367 0.00107208 0)
(0.00211478 0.00130948 0)
(0.00216136 0.00160792 0)
(0.00221921 0.00204966 0)
(0.00211855 0.00253405 0)
(0.00184978 0.00308642 0)
(0.00134095 0.00363571 0)
(0.000570909 0.00402382 0)
(0.00130598 2.95523e-07 0)
(0.00130611 8.91297e-07 0)
(0.00130639 1.50133e-06 0)
(0.00130681 2.13541e-06 0)
(0.00130738 2.8037e-06 0)
(0.0013081 3.517e-06 0)
(0.001309 4.28684e-06 0)
(0.00131008 5.12574e-06 0)
(0.00131137 6.04743e-06 0)
(0.00131287 7.0671e-06 0)
(0.00131463 8.20167e-06 0)
(0.00131666 9.47012e-06 0)
(0.00131899 1.08939e-05 0)
(0.00132167 1.24973e-05 0)
(0.00132475 1.43081e-05 0)
(0.00132826 1.63579e-05 0)
(0.00133226 1.86831e-05 0)
(0.00133683 2.13258e-05 0)
(0.00134204 2.43344e-05 0)
(0.00134798 2.77655e-05 0)
(0.00135474 3.16846e-05 0)
(0.00136244 3.61691e-05 0)
(0.00137121 4.13088e-05 0)
(0.00138122 4.72116e-05 0)
(0.00139261 5.40024e-05 0)
(0.00140562 6.18363e-05 0)
(0.00142046 7.0887e-05 0)
(0.00143743 8.13889e-05 0)
(0.00145678 9.35785e-05 0)
(0.00147901 0.000107838 0)
(0.00150432 0.000124464 0)
(0.00153358 0.000144145 0)