/*--------------------------------*- C++ -*----------------------------------*\
| =========                 |                                                 |
| \\      /  F ield         | foam-extend: Open Source CFD                    |
|  \\    /   O peration     | Version:     4.0                                |
|   \\  /    A nd           | Web:         http://www.foam-extend.org         |
|    \\/     M anipulation  |                                                 |
\*---------------------------------------------------------------------------*/
FoamFile
{
    version     2.0;
    format      ascii;
    class       volScalarField;
    location    "0.0005";
    object      k;
}
// * * * * * * * * * * * * * * * * * * * * * * * * * * * * * * * * * * * * * //

dimensions      [0 2 -2 0 0 0 0];

internalField   nonuniform List<scalar> 
28770
(
2.5956e-06
6.34935e-06
9.52622e-06
1.24198e-05
1.49869e-05
1.72921e-05
1.93265e-05
2.11024e-05
2.26317e-05
2.39304e-05
2.50174e-05
2.59136e-05
2.66408e-05
2.72213e-05
2.76767e-05
2.8027e-05
2.82905e-05
2.84829e-05
2.86175e-05
2.87045e-05
2.87513e-05
2.87622e-05
2.87384e-05
2.86779e-05
2.85753e-05
2.84224e-05
2.82077e-05
2.79166e-05
2.7532e-05
2.70345e-05
2.64038e-05
2.56194e-05
2.46627e-05
2.35188e-05
2.21783e-05
2.06399e-05
1.89125e-05
1.70166e-05
1.49857e-05
1.2866e-05
1.07158e-05
8.60251e-06
6.59868e-06
4.77659e-06
3.20187e-06
1.92691e-06
9.84253e-07
3.79659e-07
8.27384e-08
6.13935e-09
7.85535e-05
0.000189492
0.000283512
0.00036924
0.000445433
0.000513761
0.000574089
0.000626747
0.000672093
0.000710602
0.000742834
0.000769406
0.000790971
0.000808186
0.000821691
0.000832081
0.000839896
0.000845606
0.000849599
0.000852181
0.00085357
0.000853891
0.000853182
0.000851378
0.000848324
0.000843775
0.000837385
0.000828723
0.000817275
0.000802471
0.000783702
0.000760364
0.000731903
0.000697875
0.000658005
0.000612258
0.000560898
0.000504538
0.000444175
0.000381189
0.000317312
0.000254551
0.000195062
0.000140995
9.42976e-05
5.65254e-05
2.86432e-05
1.08229e-05
2.17337e-06
9.02979e-08
0.000519626
0.00130653
0.00195435
0.0025385
0.00305876
0.00352423
0.00393535
0.00429415
0.00460311
0.00486547
0.00508505
0.00526608
0.00541299
0.00553029
0.00562231
0.00569313
0.0057464
0.00578534
0.00581257
0.00583018
0.00583963
0.00584178
0.00583685
0.00582441
0.00580336
0.005772
0.00572796
0.00566826
0.00558937
0.00548734
0.00535802
0.00519724
0.00500122
0.00476692
0.00449249
0.00417773
0.0038245
0.00343708
0.00302238
0.00258993
0.00215171
0.00172153
0.00131428
0.000944733
0.000626299
0.000369693
0.000181747
6.42559e-05
1.12465e-05
4.15226e-07
0.00171343
0.00452582
0.00682682
0.00886067
0.0106637
0.0122704
0.0136882
0.0149249
0.0159894
0.0168933
0.0176495
0.0182729
0.0187788
0.0191827
0.0194996
0.0197435
0.019927
0.0200611
0.0201549
0.0202155
0.0202479
0.0202551
0.0202375
0.0201938
0.02012
0.0200102
0.0198558
0.0196466
0.0193701
0.0190126
0.0185593
0.0179959
0.0173092
0.0164886
0.0155278
0.0144264
0.013191
0.0118369
0.0103885
0.00887951
0.00735204
0.00585484
0.00444032
0.00316071
0.00206372
0.0011883
0.00056038
0.000185541
3.0126e-05
1.0727e-06
0.00399617
0.0109584
0.0167425
0.0217823
0.0262117
0.0301327
0.033582
0.0365858
0.0391693
0.0413612
0.0431946
0.0447054
0.0459311
0.0469095
0.0476771
0.0482678
0.0487123
0.0490371
0.0492641
0.0494106
0.0494886
0.0495047
0.0494606
0.0493519
0.0491691
0.048897
0.0485148
0.0479967
0.0473118
0.046426
0.0453032
0.0439077
0.042207
0.0401755
0.0377979
0.0350736
0.03202
0.0286755
0.0251014
0.0213822
0.0176233
0.0139471
0.0104857
0.00737158
0.00472678
0.002651
0.00120512
0.000381782
5.97724e-05
2.09502e-06
0.00762525
0.0214341
0.0331702
0.0433479
0.0522244
0.0600218
0.0668475
0.0727733
0.0778603
0.0821712
0.0857738
0.0887406
0.0911467
0.0930666
0.0945723
0.0957309
0.0966025
0.0972391
0.0976839
0.0979703
0.0981214
0.0981504
0.0980594
0.0978395
0.097471
0.0969232
0.0961539
0.0951104
0.0937311
0.0919469
0.0896852
0.0868744
0.0834497
0.0793601
0.0745764
0.0690985
0.0629633
0.0562503
0.0490854
0.0416416
0.0341355
0.0268192
0.0199661
0.0138508
0.00872456
0.00478186
0.00211473
0.000651801
0.000100098
3.47902e-06
0.0127582
0.0364267
0.0569938
0.0748721
0.0903981
0.103943
0.115733
0.125926
0.134651
0.14203
0.148188
0.153254
0.157359
0.160632
0.163199
0.165172
0.166657
0.16774
0.168496
0.168982
0.169235
0.169279
0.169115
0.168727
0.168079
0.167118
0.165768
0.163937
0.161516
0.158384
0.154413
0.149479
0.143468
0.136294
0.127908
0.118312
0.107576
0.0958441
0.0833435
0.0703851
0.0573589
0.0447201
0.0329622
0.0225765
0.0139979
0.00753271
0.00326666
0.000989424
0.000150205
5.19439e-06
0.0194375
0.0560234
0.0884244
0.116762
0.141349
0.162694
0.181174
0.197077
0.21064
0.22208
0.231607
0.239433
0.245767
0.250813
0.254766
0.257804
0.260087
0.261753
0.262913
0.263655
0.264038
0.264095
0.263826
0.263205
0.262175
0.260646
0.258501
0.25559
0.25174
0.246759
0.240445
0.2326
0.223046
0.21165
0.198337
0.183121
0.16612
0.147575
0.127858
0.107476
0.0870664
0.0673712
0.049192
0.0333094
0.0203796
0.0108136
0.00462513
0.00138464
0.000208543
7.18598e-06
0.0275952
0.0799458
0.127023
0.1685
0.204548
0.235758
0.262662
0.285711
0.305291
0.321753
0.335428
0.346637
0.355695
0.362902
0.368542
0.372872
0.376123
0.378491
0.380138
0.381187
0.381721
0.381783
0.381375
0.380454
0.378932
0.376678
0.373515
0.369224
0.363548
0.356203
0.346892
0.335325
0.321247
0.304464
0.284879
0.262525
0.237593
0.210455
0.18168
0.152033
0.122471
0.0941051
0.0681315
0.0456823
0.0276429
0.0145099
0.00614521
0.00182507
0.000273232
9.38212e-06
0.0370692
0.107594
0.17178
0.228735
0.278401
0.321361
0.358283
0.389796
0.416464
0.438806
0.457313
0.472446
0.484649
0.494343
0.501917
0.507725
0.51208
0.515248
0.517446
0.518838
0.519536
0.519594
0.51901
0.517721
0.515605
0.512475
0.508085
0.502128
0.494248
0.484049
0.471122
0.455068
0.435539
0.412278
0.385169
0.354278
0.319901
0.282582
0.243135
0.202639
0.162421
0.124026
0.0891255
0.0592699
0.035538
0.0184946
0.00777525
0.00229683
0.000342418
1.17228e-05
0.0476206
0.138112
0.221194
0.295426
0.36043
0.416677
0.464931
0.505994
0.540626
0.569544
0.593422
0.612896
0.628563
0.640984
0.650671
0.658088
0.663641
0.667673
0.670462
0.67222
0.673084
0.673124
0.672329
0.670614
0.667813
0.663678
0.657879
0.650012
0.639602
0.626129
0.609055
0.587858
0.56209
0.531431
0.495753
0.45518
0.410143
0.361408
0.31008
0.25758
0.205617
0.15617
0.111469
0.0736292
0.0438239
0.022653
0.00946618
0.00278535
0.000413971
1.4147e-05
0.0589508
0.170453
0.273508
0.366176
0.447616
0.518199
0.578704
0.630086
0.673302
0.709276
0.738892
0.762979
0.782309
0.7976
0.809502
0.818598
0.825395
0.83032
0.833718
0.835844
0.836871
0.836875
0.835841
0.833653
0.830098
0.82486
0.817517
0.807554
0.794371
0.777308
0.755688
0.72886
0.696271
0.65754
0.612543
0.561489
0.504989
0.444077
0.380196
0.315123
0.250871
0.189711
0.134485
0.0883021
0.0522793
0.0269221
0.0112045
0.00328783
0.000486889
1.65429e-05
0.0707307
0.203547
0.326924
0.438368
0.536683
0.622122
0.695348
0.757446
0.809567
0.852841
0.888369
0.917187
0.940256
0.958462
0.972603
0.983388
0.991431
0.997246
1.00124
1.00373
1.00491
1.00486
1.00357
1.00088
0.996526
0.990126
0.981159
0.968991
0.952889
0.93205
0.905649
0.872903
0.833156
0.785973
0.731251
0.669315
0.601002
0.527684
0.451212
0.37373
0.297387
0.224242
0.157668
0.1028
0.0606384
0.0312727
0.0130271
0.00383068
0.000568379
1.93441e-05
0.0826068
0.236333
0.379636
0.509498
0.624552
0.724766
0.810707
0.883529
0.944561
0.995134
1.03655
1.07007
1.09684
1.11791
1.13424
1.14668
1.15593
1.1626
1.16717
1.17
1.17131
1.1712
1.16963
1.16643
1.16127
1.1537
1.14308
1.12869
1.10963
1.08496
1.05372
1.01499
0.968005
0.912291
0.847778
0.774937
0.69489
0.609445
0.520998
0.432185
0.345086
0.260035
0.180958
0.116892
0.0687441
0.0357388
0.0149766
0.00442131
0.000654498
2.20102e-05
0.0942306
0.267869
0.430092
0.577527
0.708564
0.822884
0.92111
1.00432
1.07398
1.13162
1.17874
1.21678
1.2471
1.27092
1.28934
1.30333
1.31373
1.3212
1.32631
1.32945
1.33087
1.33069
1.32885
1.32514
1.3192
1.31047
1.29825
1.28167
1.25973
1.23132
1.19535
1.15076
1.0967
1.03265
0.958571
0.875108
0.783713
0.686764
0.587492
0.489538
0.395257
0.297151
0.203817
0.130784
0.0773603
0.0412289
0.0175777
0.00525928
0.000780688
2.47252e-05
0.105279
0.297373
0.477069
0.640811
0.786469
0.913895
1.02363
1.11659
1.19436
1.25864
1.31111
1.3534
1.38704
1.41341
1.43377
1.44921
1.46065
1.46886
1.47445
1.47787
1.47939
1.47913
1.47703
1.47285
1.46616
1.45634
1.44261
1.42397
1.39928
1.36734
1.32688
1.27674
1.21596
1.14399
1.06082
0.967219
0.864978
0.757134
0.648149
0.544143
0.486362
0.351782
0.23798
0.153323
0.0954414
0.0536644
0.0253721
0.00854572
0.00163324
7.24814e-05
0.115479
0.324244
0.51964
0.697999
0.85686
0.996133
1.11618
1.21803
1.30319
1.37354
1.43089
1.47706
1.51372
1.54242
1.56454
1.58127
1.59365
1.60252
1.60855
1.61221
1.61382
1.61348
1.61114
1.60651
1.59914
1.58834
1.57321
1.55268
1.52549
1.49029
1.4457
1.39045
1.32349
1.2442
1.15258
1.04947
0.936838
0.818152
0.69864
0.584236
0.503544
0.3629
0.235095
0.149771
0.0954159
0.0560203
0.0265989
0.00899062
0.00167517
5.98657e-05
0.124624
0.348072
0.557228
0.748391
0.918951
1.0684
1.19747
1.30722
1.39896
1.47468
1.53639
1.58599
1.62534
1.6561
1.67977
1.69766
1.71087
1.72031
1.72671
1.73059
1.73226
1.73186
1.7293
1.72428
1.71631
1.70462
1.68826
1.66604
1.63661
1.59851
1.55025
1.49043
1.41793
1.33207
1.23282
1.12104
0.998653
0.869014
0.73726
0.608473
0.510995
0.355318
0.223715
0.142759
0.0942937
0.0559317
0.0259282
0.00871964
0.00159834
5.98665e-05
0.132583
0.368636
0.589546
0.79163
0.972163
1.13032
1.26712
1.38357
1.48099
1.56136
1.62682
1.67941
1.72108
1.75362
1.77864
1.79751
1.81143
1.82137
1.82809
1.83215
1.83388
1.83341
1.83067
1.82532
1.81682
1.80437
1.78694
1.76327
1.73191
1.6913
1.63984
1.57605
1.49873
1.40716
1.30129
1.182
1.05123
0.91219
0.769819
0.629923
0.526863
0.358088
0.226058
0.147517
0.0991667
0.0519299
0.0215353
0.0076664
0.00129778
5.09493e-05
0.139297
0.385872
0.616554
0.827708
1.01654
1.18207
1.32512
1.44705
1.54927
1.63357
1.70218
1.75728
1.80091
1.83496
1.8611
1.88081
1.89533
1.90569
1.91268
1.91688
1.91866
1.91815
1.91525
1.90962
1.90069
1.88761
1.86928
1.84439
1.8114
1.76867
1.71453
1.64741
1.56604
1.46966
1.35822
1.23265
1.09505
0.948749
0.798925
0.653063
0.550024
0.376075
0.243068
0.162253
0.108044
0.054206
0.0243847
0.00873433
0.00154901
7.94083e-05
0.144767
0.399848
0.638404
0.856861
1.05238
1.2239
1.37193
1.49827
1.60436
1.69184
1.76303
1.82018
1.86541
1.90069
1.92776
1.94815
1.96317
1.97386
1.98108
1.98541
1.98723
1.98668
1.98365
1.9778
1.96852
1.95492
1.93588
1.90999
1.87569
1.83124
1.7749
1.70507
1.62043
1.52018
1.40428
1.27373
1.1308
0.979139
0.824187
0.67407
0.568741
0.396434
0.260218
0.174798
0.1153
0.0562777
0.0255768
0.00856039
0.00169965
9.80888e-05
0.149037
0.410724
0.655377
0.87949
1.0802
1.25638
1.40833
1.53803
1.64707
1.73705
1.81026
1.86903
1.91553
1.95178
1.97959
2.00053
2.01594
2.02691
2.0343
2.03874
2.0406
2.04002
2.0369
2.03088
2.02132
2.00733
1.98772
1.96106
1.92572
1.87992
1.82188
1.74993
1.66274
1.55949
1.44016
1.30581
1.15885
1.00322
0.844578
0.691004
0.58076
0.40846
0.268596
0.180291
0.118421
0.0581824
0.0270393
0.00938827
0.00192425
8.04494e-05
0.152182
0.418715
0.667829
0.896082
1.10061
1.28023
1.43515
1.56722
1.67837
1.77024
1.84496
1.90494
1.9524
1.98939
2.01777
2.03913
2.05484
2.06602
2.07356
2.07808
2.07997
2.07938
2.07619
2.07005
2.06029
2.046
2.02597
1.99874
1.96263
1.91583
1.85652
1.78301
1.69393
1.58847
1.46666
1.32955
1.17964
1.02101
0.859384
0.702517
0.588533
0.414131
0.271595
0.18177
0.119595
0.060662
0.0280097
0.00997648
0.00182198
0.000133319
0.154291
0.424061
0.67615
0.907166
1.11425
1.29621
1.45316
1.58677
1.69931
1.79247
1.86824
1.92907
1.9772
2.01471
2.04349
2.06515
2.08109
2.09243
2.10008
2.10466
2.10658
2.10599
2.10277
2.09654
2.08665
2.07216
2.05184
2.02422
1.98758
1.94009
1.87991
1.80533
1.71496
1.60802
1.48453
1.3456
1.19376
1.03314
0.86958
0.710991
0.595545
0.419297
0.275027
0.183729
0.121525
0.0621822
0.0295795
0.0107925
0.00212165
0.000144373
0.155464
0.427058
0.680852
0.913462
1.12204
1.30537
1.46353
1.59801
1.71132
1.80524
1.88165
1.94299
1.99154
2.02939
2.05842
2.08028
2.09636
2.10781
2.11553
2.12017
2.12212
2.12153
2.11829
2.11203
2.10207
2.08747
2.067
2.03914
2.0022
1.95431
1.89362
1.81841
1.7273
1.61949
1.49503
1.35507
1.20215
1.04045
0.87589
0.716634
0.601149
0.425382
0.280269
0.187211
0.123526
0.0624888
0.0303298
0.0118391
0.00346538
0.000349383
0.155817
0.427983
0.682341
0.915497
1.12458
1.3084
1.46699
1.60175
1.71528
1.80947
1.88613
1.94768
1.99639
2.03437
2.06351
2.08546
2.10161
2.11312
2.12089
2.12556
2.12754
2.12697
2.12375
2.11749
2.10753
2.09292
2.07241
2.0445
2.00746
1.95945
1.89859
1.82316
1.73177
1.62364
1.49882
1.35848
1.20518
1.04313
0.878314
0.719102
0.602258
0.429483
0.283858
0.189733
0.124766
0.0636355
0.0306591
0.0123726
0.00393157
0.000641188
0.155433
0.427024
0.680876
0.913573
1.12223
1.30565
1.46387
1.59836
1.71164
1.8056
1.8821
1.94352
1.99215
2.03007
2.05917
2.08109
2.09723
2.10874
2.11652
2.12121
2.12321
2.12269
2.11951
2.11331
2.10342
2.08889
2.06848
2.04068
2.00378
1.95591
1.89521
1.81995
1.72875
1.62082
1.49621
1.35609
1.20302
1.04119
0.876493
0.716918
0.599225
0.4282
0.282541
0.188835
0.124167
0.0631635
0.0302296
0.0119872
0.00353186
0.000395773
0.15428
0.424087
0.676276
0.90742
1.11462
1.2967
1.45372
1.5873
1.69978
1.793
1.86892
1.92988
1.97814
2.0158
2.0447
2.06649
2.08254
2.09399
2.10175
2.10644
2.10847
2.10799
2.10489
2.09879
2.08904
2.07468
2.05449
2.02696
1.99039
1.94292
1.8827
1.808
1.71745
1.61025
1.48645
1.34721
1.19505
1.03414
0.870339
0.711616
0.591692
0.422463
0.277544
0.18519
0.121755
0.0618295
0.0291729
0.0110389
0.0028692
0.000154866
0.152271
0.418957
0.668223
0.896616
1.10125
1.28095
1.43589
1.56784
1.67889
1.77083
1.8457
1.90584
1.95346
1.99063
2.01917
2.0407
2.05658
2.06792
2.07562
2.08029
2.08235
2.08193
2.07893
2.07297
2.06341
2.04931
2.02945
2.00235
1.96631
1.91951
1.8601
1.78638
1.69698
1.59112
1.46882
1.33121
1.18079
1.02163
0.859467
0.702003
0.584959
0.416013
0.272651
0.181787
0.119228
0.0598595
0.0280549
0.0101477
0.00248061
0.00013943
0.149261
0.411283
0.656189
0.880478
1.08129
1.2575
1.40936
1.53885
1.64776
1.73779
1.81112
1.87003
1.9167
1.95314
1.98115
2.00229
2.01789
2.02907
2.03666
2.0413
2.04337
2.04301
2.04013
2.03435
2.02504
2.01128
1.99187
1.96536
1.93008
1.88423
1.82601
1.75373
1.66605
1.56219
1.44218
1.30713
1.15948
1.00327
0.844308
0.690776
0.574108
0.411333
0.269861
0.180345
0.117726
0.0575709
0.0270241
0.00952058
0.0019887
8.68516e-05
0.145206
0.400916
0.639905
0.858622
1.05425
1.22573
1.37354
1.49957
1.60549
1.69296
1.7642
1.82145
1.86683
1.90228
1.92955
1.95016
1.96539
1.97632
1.98377
1.98834
1.99042
1.99013
1.98739
1.98182
1.97283
1.9595
1.94067
1.91493
1.88065
1.83608
1.77944
1.70912
1.62379
1.52269
1.40586
1.27436
1.13056
0.978376
0.823409
0.673513
0.56209
0.403508
0.26561
0.177938
0.116026
0.0553191
0.0255918
0.00860745
0.00142424
8.76176e-05
0.140028
0.387641
0.619023
0.830566
1.01952
1.18495
1.32765
1.44914
1.55114
1.63532
1.7039
1.75902
1.80274
1.83692
1.86324
1.88315
1.8979
1.90849
1.91574
1.92022
1.92229
1.92208
1.91949
1.91419
1.90558
1.89278
1.87468
1.84991
1.81689
1.77394
1.71935
1.65154
1.56926
1.47176
1.35908
1.23227
1.0936
0.94682
0.797328
0.653194
0.536011
0.387295
0.253486
0.169463
0.111214
0.0535736
0.0242379
0.00903281
0.00141881
6.77282e-05
0.133674
0.371284
0.593239
0.795886
0.976581
1.13454
1.27086
1.3868
1.48387
1.564
1.62929
1.68179
1.72346
1.75607
1.78121
1.80026
1.8144
1.82458
1.83157
1.83592
1.83796
1.83783
1.83543
1.83043
1.82227
1.81011
1.79289
1.7693
1.73784
1.69689
1.64483
1.58014
1.50164
1.40864
1.30117
1.18027
1.0481
0.908123
0.764914
0.624692
0.515646
0.364898
0.233112
0.153872
0.102884
0.051712
0.0214019
0.00784715
0.0013204
4.26073e-05
0.126122
0.351735
0.562345
0.754274
0.925042
1.0742
1.20266
1.31184
1.4031
1.47841
1.53978
1.58917
1.6284
1.65913
1.68287
1.70088
1.71428
1.72395
1.73062
1.73479
1.73679
1.73673
1.73453
1.72988
1.72225
1.71085
1.69467
1.67248
1.64287
1.60432
1.55528
1.49435
1.42041
1.33283
1.23167
1.11797
0.993906
0.86295
0.729675
0.600135
0.496631
0.350365
0.219639
0.140945
0.093807
0.0554569
0.0242038
0.00820065
0.00156716
5.14712e-05
0.117405
0.328989
0.526286
0.705628
0.864742
1.00366
1.12303
1.22419
1.30871
1.37845
1.4353
1.48109
1.5175
1.54607
1.56817
1.58497
1.5975
1.60657
1.61285
1.6168
1.61873
1.61875
1.61677
1.61252
1.60548
1.59494
1.57996
1.5594
1.53195
1.49618
1.45067
1.39412
1.3255
1.24424
1.15044
1.04513
0.930453
0.810026
0.688819
0.573159
0.494745
0.354524
0.22377
0.142321
0.0920803
0.0548419
0.0259437
0.00863888
0.00152648
5.8195e-05
0.107617
0.303186
0.485231
0.650173
0.796117
0.923149
1.03218
1.12432
1.20125
1.26474
1.31653
1.35828
1.39153
1.41766
1.43791
1.45334
1.46487
1.47325
1.47907
1.48276
1.4846
1.48469
1.48295
1.47912
1.47274
1.46317
1.44955
1.43082
1.40579
1.37318
1.33167
1.28009
1.21749
1.14338
1.05789
0.961977
0.857747
0.748862
0.641053
0.542277
0.460125
0.359097
0.23649
0.150996
0.0954117
0.0552071
0.0261314
0.00877335
0.00159175
6.37106e-05
0.0969251
0.274637
0.439619
0.588451
0.719823
0.833731
0.931194
1.01345
1.0821
1.13878
1.18505
1.22241
1.25221
1.27567
1.29389
1.30781
1.31823
1.32583
1.33113
1.33452
1.33624
1.33638
1.33488
1.33151
1.32586
1.31734
1.30519
1.28848
1.26612
1.23697
1.19987
1.15375
1.09777
1.03151
0.955066
0.869311
0.776023
0.678272
0.581228
0.492985
0.402503
0.298166
0.204415
0.129563
0.0787357
0.0421815
0.0176321
0.00549787
0.000772577
2.43572e-05
0.0855703
0.243852
0.390245
0.521644
0.637091
0.736909
0.822009
0.893758
0.953633
1.0031
1.04354
1.07625
1.10238
1.12301
1.13905
1.15134
1.16057
1.16732
1.17205
1.17509
1.17667
1.17686
1.1756
1.1727
1.16781
1.1604
1.14982
1.13525
1.11574
1.09029
1.05789
1.01759
0.968684
0.910766
0.843937
0.768917
0.687087
0.600419
0.51181
0.427939
0.346677
0.260563
0.181339
0.118306
0.0703693
0.0364126
0.0154445
0.0045165
0.000663125
2.2514e-05
0.0738491
0.211536
0.338217
0.451281
0.550013
0.635057
0.707385
0.768318
0.819189
0.861268
0.89573
0.923653
0.946017
0.963701
0.977492
0.988077
0.996047
1.00189
1.006
1.00867
1.01008
1.0103
1.00928
1.00686
1.00273
0.996468
0.987498
0.975128
0.95856
0.936934
0.909385
0.875119
0.833508
0.784208
0.727282
0.663344
0.593606
0.519591
0.442534
0.366513
0.293184
0.221568
0.156153
0.102159
0.0606268
0.0312158
0.0130575
0.0038221
0.000563886
1.91465e-05
0.0620936
0.178567
0.284991
0.37929
0.461144
0.531307
0.59088
0.641062
0.683
0.717751
0.746271
0.769432
0.788022
0.802755
0.814269
0.823126
0.82981
0.834728
0.838201
0.84047
0.841689
0.841918
0.841121
0.839161
0.835791
0.830656
0.823285
0.813108
0.799467
0.781652
0.758948
0.730696
0.696373
0.655674
0.608602
0.555585
0.497612
0.436123
0.371989
0.307393
0.244657
0.185114
0.131264
0.0861262
0.0511073
0.0263034
0.0109571
0.00320288
0.000472648
1.60486e-05
0.0506539
0.145983
0.232328
0.308103
0.37348
0.42929
0.476617
0.516509
0.549905
0.577639
0.600455
0.619026
0.633965
0.64583
0.65512
0.662281
0.667697
0.671692
0.674525
0.676388
0.677405
0.677628
0.677029
0.675499
0.672845
0.668783
0.662941
0.654863
0.644028
0.629869
0.611817
0.589345
0.562034
0.529638
0.492134
0.44978
0.403236
0.353709
0.302145
0.249895
0.198819
0.15065
0.107264
0.070629
0.0419929
0.0216454
0.00901619
0.0026351
0.000388808
1.31985e-05
0.0398647
0.114859
0.182035
0.240358
0.290314
0.332835
0.368888
0.399323
0.424864
0.446128
0.463665
0.477972
0.489505
0.498681
0.505878
0.511435
0.515647
0.51876
0.520975
0.522441
0.523254
0.523455
0.523025
0.521881
0.519876
0.516795
0.512353
0.506205
0.497949
0.487156
0.473388
0.45624
0.435388
0.410641
0.381985
0.349596
0.313872
0.275658
0.235843
0.195441
0.155793
0.118362
0.0846193
0.0559653
0.0334002
0.0172719
0.00720974
0.00210955
0.000311329
1.05647e-05
0.0300415
0.0862865
0.135931
0.178531
0.214775
0.245568
0.271708
0.293831
0.312448
0.327991
0.340839
0.351343
0.359824
0.366582
0.37189
0.375994
0.379109
0.381417
0.383064
0.38416
0.384777
0.384945
0.384651
0.383837
0.382396
0.380172
0.376958
0.372503
0.366516
0.358685
0.34869
0.336238
0.321086
0.303087
0.282231
0.258654
0.232615
0.204646
0.175432
0.145749
0.116541
0.0888813
0.0638547
0.0424694
0.025488
0.0132484
0.00555268
0.00162874
0.000240552
8.16005e-06
0.021452
0.0612068
0.0956503
0.124828
0.149523
0.170506
0.188365
0.203529
0.21633
0.227044
0.235919
0.243185
0.24906
0.253746
0.257431
0.260283
0.26245
0.264058
0.265209
0.265979
0.266418
0.266547
0.266359
0.265813
0.264838
0.263325
0.261135
0.258094
0.254004
0.24865
0.241816
0.233298
0.22293
0.210606
0.196308
0.180137
0.162272
0.14304
0.122903
0.102408
0.0821956
0.0629865
0.0455216
0.0304906
0.0184399
0.0096578
0.00407406
0.00120017
0.000177532
6.02049e-06
0.0142971
0.0403357
0.0623821
0.0808234
0.0963915
0.109653
0.120984
0.13064
0.138814
0.145669
0.151357
0.156018
0.15979
0.1628
0.165169
0.167003
0.168399
0.169436
0.17018
0.17068
0.170968
0.171059
0.170947
0.170608
0.169995
0.169041
0.167657
0.165731
0.163139
0.159744
0.155406
0.149999
0.143417
0.135591
0.126504
0.116216
0.10485
0.0926016
0.0797565
0.0666633
0.0537257
0.0413916
0.0301221
0.0203503
0.0124319
0.00658173
0.00280436
0.000832093
0.000123447
4.18581e-06
0.00869185
0.0240894
0.0367753
0.0472822
0.0561643
0.0637669
0.070292
0.0758707
0.0806031
0.0845772
0.0878767
0.0905824
0.0927724
0.094521
0.0958972
0.0969636
0.0977753
0.0983792
0.0988132
0.0991061
0.0992767
0.0993333
0.0992732
0.0990822
0.0987338
0.0981889
0.0973958
0.0962915
0.094803
0.0928515
0.0903571
0.0872457
0.0834574
0.0789535
0.073722
0.067795
0.0612443
0.0541832
0.046772
0.0392104
0.0317292
0.0245804
0.0180222
0.0122968
0.0076071
0.00408762
0.0017686
0.000531265
7.92585e-05
2.6879e-06
0.00464338
0.0125211
0.0188229
0.0240241
0.0284473
0.0322562
0.035538
0.0383498
0.0407375
0.0427436
0.0444093
0.0457753
0.046881
0.0477638
0.0484586
0.0489972
0.0494073
0.0497127
0.0499326
0.0500815
0.0501691
0.0501995
0.0501713
0.0500775
0.0499049
0.0496337
0.0492379
0.0486857
0.0479405
0.0469627
0.0457122
0.0441513
0.0422498
0.039989
0.037363
0.0343866
0.0310962
0.0275492
0.0238256
0.0200251
0.0162628
0.0126634
0.00935278
0.00644822
0.00404733
0.00221718
0.000981659
0.000301343
4.54851e-05
1.5441e-06
0.00203558
0.00526835
0.00779228
0.00988865
0.0116871
0.0132434
0.0145871
0.015739
0.0167173
0.017539
0.0182211
0.0187803
0.0192327
0.019594
0.0198783
0.0200986
0.0202665
0.0203916
0.0204818
0.0205431
0.0205795
0.0205926
0.0205819
0.0205445
0.020475
0.0203653
0.0202047
0.0199803
0.0196769
0.0192784
0.0187684
0.0181315
0.0173551
0.0164316
0.0153591
0.0141433
0.012799
0.0113501
0.00982913
0.00827697
0.0067405
0.00527017
0.00391647
0.00272582
0.00173609
0.00097256
0.000444616
0.000141761
2.19812e-05
7.49969e-07
0.000634178
0.00155365
0.00226791
0.00286932
0.00338857
0.00383861
0.00422715
0.00456007
0.00484261
0.00507982
0.00527662
0.00543788
0.00556833
0.00567242
0.00575433
0.00581781
0.00586619
0.00590226
0.00592832
0.00594608
0.00595669
0.00596064
0.00595778
0.00594726
0.00592751
0.00589619
0.0058502
0.00578574
0.00569846
0.00558365
0.00543656
0.00525276
0.00502855
0.00476174
0.00445183
0.00410049
0.00371203
0.00329338
0.00285407
0.0024059
0.00196246
0.00153828
0.0011478
0.000804205
0.000518084
0.000296207
0.000140452
4.74939e-05
7.8409e-06
2.72699e-07
9.91155e-05
0.000230743
0.00033491
0.000423268
0.000499568
0.000565636
0.000622624
0.000671416
0.000712797
0.000747514
0.000776301
0.000799876
0.000818935
0.000834137
0.000846094
0.000855359
0.000862419
0.000867686
0.000871496
0.0008741
0.000875669
0.000876273
0.000875886
0.000874386
0.00087154
0.000867001
0.000860311
0.000850909
0.000838148
0.000821328
0.000799749
0.00077276
0.00073981
0.000700571
0.000654979
0.000603284
0.000546125
0.000484535
0.000419924
0.000354042
0.000288895
0.000226621
0.000169339
0.000118964
7.70302e-05
4.4513e-05
2.16388e-05
7.76563e-06
1.4469e-06
5.45497e-08
3.38217e-06
7.88812e-06
1.1429e-05
1.44254e-05
1.70106e-05
1.92477e-05
2.11763e-05
2.28268e-05
2.42257e-05
2.53988e-05
2.63709e-05
2.71666e-05
2.78095e-05
2.8322e-05
2.8725e-05
2.90371e-05
2.92749e-05
2.94523e-05
2.95808e-05
2.96688e-05
2.97222e-05
2.97433e-05
2.97311e-05
2.96816e-05
2.95867e-05
2.94347e-05
2.92097e-05
2.88928e-05
2.84618e-05
2.78926e-05
2.71611e-05
2.62453e-05
2.51263e-05
2.37928e-05
2.22426e-05
2.04845e-05
1.85403e-05
1.64455e-05
1.42484e-05
1.20088e-05
9.79527e-06
7.68082e-06
5.73751e-06
4.0301e-06
2.60982e-06
1.50945e-06
7.37138e-07
2.69222e-07
5.39959e-08
3.46598e-09
2.2805e-06
5.48049e-08
8.54113e-09
7.12529e-10
1.40911e-11
5.85509e-13
4.34986e-14
2.8756e-15
1e-15
1e-15
1e-15
1.07831e-15
2.27223e-15
1.00992e-14
2.25891e-13
7.01211e-12
1.56004e-10
3.27601e-09
6.6871e-08
1.47406e-06
5.12761e-05
3.92844e-06
3.24272e-07
2.54739e-08
1.40764e-09
7.85779e-11
1.47203e-12
8.41952e-14
1.16648e-15
1e-15
1e-15
2.33255e-14
3.73606e-13
3.97709e-12
5.27841e-11
8.54289e-10
1.6532e-08
3.30909e-07
6.58342e-06
0.00012811
1.69546e-05
6.01928e-07
6.2595e-08
6.9414e-09
2.55082e-10
2.25312e-11
2.15261e-13
9.64298e-15
1.60996e-15
1e-15
1e-15
5.65493e-15
9.61602e-14
1.0537e-12
1.30717e-11
2.02056e-10
3.64429e-09
7.14632e-08
1.44649e-06
3.15141e-05
3.40214e-09
5.29962e-08
2.64201e-07
7.22743e-07
1.47497e-06
2.53783e-06
3.89874e-06
5.52022e-06
7.34656e-06
9.31017e-06
1.13384e-05
1.33602e-05
1.53115e-05
1.71391e-05
1.88035e-05
2.02791e-05
2.15537e-05
2.26271e-05
2.35084e-05
2.42139e-05
2.47641e-05
2.51819e-05
2.54902e-05
2.57113e-05
2.5865e-05
2.59687e-05
2.60368e-05
2.60808e-05
2.61096e-05
2.61294e-05
2.61446e-05
2.61583e-05
2.61723e-05
2.61879e-05
2.62061e-05
2.62278e-05
2.6254e-05
2.62862e-05
2.63257e-05
2.63744e-05
2.64346e-05
2.65083e-05
2.65978e-05
2.67051e-05
2.68312e-05
2.69763e-05
2.71394e-05
2.73175e-05
2.75066e-05
2.7701e-05
2.78949e-05
2.80822e-05
2.82575e-05
2.84163e-05
2.85554e-05
2.86729e-05
2.87685e-05
2.88424e-05
2.88976e-05
2.8936e-05
2.89608e-05
2.89755e-05
2.89828e-05
2.89852e-05
2.89847e-05
2.89826e-05
2.89799e-05
2.89773e-05
2.8975e-05
2.89733e-05
2.89721e-05
2.89713e-05
2.89709e-05
2.89708e-05
2.89707e-05
2.89709e-05
2.89709e-05
2.89708e-05
2.89706e-05
2.89702e-05
2.89693e-05
2.89679e-05
2.89656e-05
2.89618e-05
2.89559e-05
2.89468e-05
2.89332e-05
2.89133e-05
2.88847e-05
2.88445e-05
2.87893e-05
2.87152e-05
2.86178e-05
2.84932e-05
2.83382e-05
2.81517e-05
2.79372e-05
2.77058e-05
2.74822e-05
2.7316e-05
5.3554e-08
1.42012e-06
7.61785e-06
2.12113e-05
4.3551e-05
7.51254e-05
0.000115559
0.000163732
0.000217983
0.000276299
0.000336522
0.00039654
0.00045445
0.000508681
0.000558057
0.000601822
0.000639619
0.000671442
0.000697567
0.000718474
0.000734776
0.00074715
0.000756282
0.000762824
0.000767371
0.000770436
0.000772447
0.000773746
0.000774591
0.000775174
0.000775623
0.000776025
0.000776438
0.000776899
0.000777439
0.000778083
0.000778865
0.000779821
0.000780999
0.000782453
0.000784246
0.000786446
0.000789119
0.000792319
0.000796084
0.000800419
0.00080529
0.000810613
0.000816262
0.000822075
0.00082787
0.00083347
0.000838711
0.000843461
0.000847622
0.000851138
0.000854001
0.000856217
0.000857872
0.000859026
0.000859774
0.000860219
0.000860442
0.000860518
0.000860506
0.000860448
0.00086037
0.000860292
0.000860226
0.000860175
0.000860139
0.000860116
0.000860104
0.0008601
0.000860099
0.000860104
0.000860104
0.000860101
0.000860097
0.000860082
0.000860057
0.000860016
0.000859946
0.000859834
0.000859658
0.000859388
0.000858984
0.000858391
0.000857539
0.000856344
0.000854701
0.000852494
0.000849597
0.000845889
0.000841274
0.000835722
0.000829333
0.000822439
0.000815774
0.000810797
2.68045e-07
7.70185e-06
4.66232e-05
0.000137796
0.000290258
0.000506572
0.000783866
0.00111431
0.00148635
0.00188604
0.00229852
0.00270929
0.00310533
0.00347592
0.00381306
0.00411164
0.00436931
0.00458607
0.00476385
0.004906
0.00501672
0.00510065
0.00516249
0.00520671
0.00523735
0.00525794
0.00527138
0.00528001
0.00528559
0.00528942
0.00529237
0.00529503
0.0052978
0.00530092
0.00530459
0.00530902
0.0053144
0.00532101
0.00532917
0.00533927
0.00535173
0.00536704
0.00538566
0.00540799
0.00543428
0.00546459
0.00549867
0.00553596
0.00557556
0.00561633
0.00565699
0.00569629
0.00573309
0.00576646
0.00579572
0.00582046
0.00584066
0.00585631
0.00586803
0.00587626
0.00588164
0.00588487
0.00588654
0.00588718
0.00588716
0.00588682
0.00588632
0.00588582
0.00588538
0.00588504
0.0058848
0.00588464
0.00588456
0.00588452
0.00588452
0.00588455
0.00588454
0.00588452
0.0058845
0.0058844
0.00588423
0.00588395
0.00588347
0.0058827
0.00588149
0.00587963
0.00587685
0.00587277
0.0058669
0.00585867
0.00584735
0.00583214
0.00581217
0.00578659
0.00575473
0.00571636
0.00567211
0.00562424
0.00557779
0.00554241
7.38719e-07
2.16401e-05
0.000139493
0.000437337
0.000955757
0.00170294
0.00266617
0.00381626
0.00511155
0.00650253
0.00793681
0.00936358
0.0107375
0.0120214
0.0131878
0.0142193
0.0151081
0.0158546
0.0164658
0.0169535
0.0173326
0.0176191
0.0178295
0.0179793
0.0180825
0.0181513
0.0181957
0.0182239
0.0182419
0.0182541
0.0182635
0.0182721
0.0182813
0.0182919
0.0183046
0.01832
0.0183389
0.0183622
0.0183911
0.018427
0.0184714
0.018526
0.0185926
0.0186727
0.0187672
0.0188763
0.0189993
0.0191341
0.0192775
0.0194252
0.0195726
0.0197152
0.0198487
0.0199699
0.0200763
0.0201662
0.02024
0.0202972
0.0203401
0.0203706
0.0203907
0.0204029
0.0204095
0.0204122
0.0204126
0.0204117
0.0204101
0.0204085
0.020407
0.0204059
0.0204051
0.0204045
0.0204042
0.0204041
0.0204041
0.0204041
0.0204041
0.0204041
0.020404
0.0204036
0.0204031
0.0204021
0.0204004
0.0203977
0.0203935
0.0203871
0.0203774
0.0203631
0.0203426
0.0203138
0.0202742
0.0202209
0.0201509
0.0200611
0.019949
0.0198136
0.0196567
0.019486
0.0193192
0.0191905
1.52337e-06
4.49207e-05
0.000297648
0.000969464
0.00218786
0.00398655
0.00633315
0.00915018
0.0123295
0.015745
0.0192648
0.0227621
0.026125
0.0292622
0.0321069
0.0346176
0.0367762
0.0385849
0.0400619
0.0412371
0.0421471
0.0428321
0.0433324
0.0436859
0.043927
0.0440856
0.0441862
0.0442485
0.0442872
0.044313
0.0443331
0.044352
0.044373
0.0443979
0.0444286
0.0444664
0.0445134
0.0445718
0.0446445
0.0447351
0.0448477
0.0449868