/*--------------------------------*- C++ -*----------------------------------*\
| =========                 |                                                 |
| \\      /  F ield         | foam-extend: Open Source CFD                    |
|  \\    /   O peration     | Version:     4.0                                |
|   \\  /    A nd           | Web:         http://www.foam-extend.org         |
|    \\/     M anipulation  |                                                 |
\*---------------------------------------------------------------------------*/
FoamFile
{
    version     2.0;
    format      ascii;
    class       volScalarField;
    location    "0.0005";
    object      nut;
}
// * * * * * * * * * * * * * * * * * * * * * * * * * * * * * * * * * * * * * //

dimensions      [0 2 -1 0 0 0 0];

internalField   nonuniform List<scalar> 
28770
(
1.38362e-13
3.38461e-13
5.07808e-13
6.62053e-13
7.98897e-13
9.21782e-13
1.03023e-12
1.1249e-12
1.20641e-12
1.27565e-12
1.33359e-12
1.38136e-12
1.42013e-12
1.45107e-12
1.47534e-12
1.49402e-12
1.50806e-12
1.51832e-12
1.52549e-12
1.53013e-12
1.53263e-12
1.53321e-12
1.53194e-12
1.52871e-12
1.52324e-12
1.5151e-12
1.50365e-12
1.48814e-12
1.46763e-12
1.44111e-12
1.40749e-12
1.36568e-12
1.31468e-12
1.2537e-12
1.18224e-12
1.10024e-12
1.00816e-12
9.07096e-13
7.98833e-13
6.85841e-13
5.71222e-13
4.58569e-13
3.51752e-13
2.54623e-13
1.7068e-13
1.02717e-13
5.2467e-14
2.02383e-14
4.41048e-15
3.27266e-16
2.90922e-11
5.94812e-11
8.77724e-11
1.14148e-10
1.37676e-10
1.58789e-10
1.77433e-10
1.93708e-10
2.07722e-10
2.19624e-10
2.29586e-10
2.37798e-10
2.44463e-10
2.49784e-10
2.53958e-10
2.57169e-10
2.59585e-10
2.61349e-10
2.62583e-10
2.63381e-10
2.6381e-10
2.6391e-10
2.63691e-10
2.63133e-10
2.62189e-10
2.60783e-10
2.58808e-10
2.56131e-10
2.52593e-10
2.48017e-10
2.42216e-10
2.35003e-10
2.26207e-10
2.1569e-10
2.03367e-10
1.89228e-10
1.73354e-10
1.55935e-10
1.37279e-10
1.17812e-10
9.80696e-11
7.86716e-11
6.02848e-11
4.35726e-11
2.91362e-11
1.74519e-11
8.80499e-12
3.21907e-12
4.90461e-13
5.02012e-15
7.64787e-10
1.28451e-09
1.80168e-09
2.31092e-09
2.77675e-09
3.19702e-09
3.56919e-09
3.89432e-09
4.17439e-09
4.41226e-09
4.61136e-09
4.7755e-09
4.90873e-09
5.01509e-09
5.09854e-09
5.16275e-09
5.21107e-09
5.24637e-09
5.27107e-09
5.28703e-09
5.29561e-09
5.29755e-09
5.29308e-09
5.2818e-09
5.2627e-09
5.23427e-09
5.19433e-09
5.14019e-09
5.06864e-09
4.97612e-09
4.85884e-09
4.71303e-09
4.53527e-09
4.32278e-09
4.07391e-09
3.78845e-09
3.46811e-09
3.11675e-09
2.74062e-09
2.34837e-09
1.95082e-09
1.56047e-09
1.1907e-09
8.54726e-10
5.64284e-10
3.28317e-10
1.52483e-10
4.27418e-11
3.46071e-12
2.30845e-14
7.49427e-09
1.05003e-08
1.37559e-08
1.71689e-08
2.04192e-08
2.34046e-08
2.60725e-08
2.84125e-08
3.04321e-08
3.21488e-08
3.35863e-08
3.47716e-08
3.57338e-08
3.6502e-08
3.71048e-08
3.75687e-08
3.79179e-08
3.8173e-08
3.83514e-08
3.84667e-08
3.85284e-08
3.85419e-08
3.85086e-08
3.84254e-08
3.82849e-08
3.80758e-08
3.77821e-08
3.73839e-08
3.68577e-08
3.61771e-08
3.53145e-08
3.42422e-08
3.29351e-08
3.13731e-08
2.95441e-08
2.74471e-08
2.50947e-08
2.25157e-08
1.97559e-08
1.68788e-08
1.39634e-08
1.11e-08
8.38488e-09
5.9116e-09
3.7647e-09
2.02285e-09
7.86239e-10
1.59946e-10
9.64589e-12
5.96366e-14
4.15667e-08
5.11849e-08
6.28145e-08
7.57504e-08
8.86111e-08
1.00741e-07
1.11756e-07
1.21506e-07
1.29964e-07
1.37174e-07
1.4322e-07
1.4821e-07
1.52262e-07
1.55499e-07
1.5804e-07
1.59995e-07
1.61467e-07
1.62542e-07
1.63294e-07
1.63779e-07
1.64037e-07
1.64091e-07
1.63944e-07
1.63583e-07
1.62977e-07
1.62074e-07
1.60806e-07
1.59087e-07
1.56815e-07
1.53877e-07
1.50151e-07
1.4552e-07
1.39875e-07
1.3313e-07
1.25232e-07
1.16179e-07
1.06024e-07
9.48887e-08
8.29699e-08
7.05355e-08
5.79181e-08
4.54996e-08
3.369e-08
2.29166e-08
1.36528e-08
6.50037e-09
2.09683e-09
3.51945e-10
1.92428e-11
1.16473e-13
1.58994e-07
1.80672e-07
2.1019e-07
2.44853e-07
2.80703e-07
3.15494e-07
3.47738e-07
3.76666e-07
4.01977e-07
4.23672e-07
4.41929e-07
4.57029e-07
4.6931e-07
4.79128e-07
4.86838e-07
4.92776e-07
4.97245e-07
5.00511e-07
5.02793e-07
5.04261e-07
5.05036e-07
5.05181e-07
5.04709e-07
5.03574e-07
5.01673e-07
4.98846e-07
4.94877e-07
4.89493e-07
4.82373e-07
4.73162e-07
4.6148e-07
4.46955e-07
4.29246e-07
4.08079e-07
3.8329e-07
3.54858e-07
3.22945e-07
2.87918e-07
2.5037e-07
2.11119e-07
1.71195e-07
1.3183e-07
9.44707e-08
6.0884e-08
3.32959e-08
1.40639e-08
3.98772e-09
6.11531e-10
3.22563e-11
1.93416e-13
4.69656e-07
5.10127e-07
5.69483e-07
6.43153e-07
7.2207e-07
8.00749e-07
8.75226e-07
9.43103e-07
1.00318e-06
1.05508e-06
1.099e-06
1.13547e-06
1.1652e-06
1.18902e-06
1.20774e-06
1.22218e-06
1.23305e-06
1.24099e-06
1.24653e-06
1.25009e-06
1.25194e-06
1.25224e-06
1.251e-06
1.24811e-06
1.24329e-06
1.23613e-06
1.22608e-06
1.21245e-06
1.19441e-06
1.17105e-06
1.14141e-06
1.10453e-06
1.05953e-06
1.0057e-06
9.42594e-07
8.70126e-07
7.8866e-07
6.9908e-07
6.02851e-07
5.02072e-07
3.99553e-07
2.98972e-07
2.05131e-07
1.24118e-07
6.24813e-08
2.41124e-08
6.34704e-09
9.33103e-10
4.84145e-11
2.88783e-13
1.14825e-06
1.21695e-06
1.31963e-06
1.4526e-06
1.59922e-06
1.74886e-06
1.89333e-06
2.02713e-06
2.14705e-06
2.25168e-06
2.34085e-06
2.41529e-06
2.47623e-06
2.52518e-06
2.56374e-06
2.59351e-06
2.61595e-06
2.63235e-06
2.64378e-06
2.65107e-06
2.6548e-06
2.65526e-06
2.65246e-06
2.6461e-06
2.63559e-06
2.62002e-06
2.59815e-06
2.56846e-06
2.52915e-06
2.47819e-06
2.41344e-06
2.33278e-06
2.23423e-06
2.11615e-06
1.97751e-06
1.818e-06
1.63835e-06
1.44047e-06
1.22773e-06
1.00528e-06
7.80571e-07
5.63937e-07
3.68813e-07
2.10081e-07
9.89652e-08
3.59928e-08
9.0926e-09
1.30808e-09
6.72228e-11
3.99505e-13
2.42714e-06
2.54207e-06
2.70452e-06
2.91747e-06
3.15711e-06
3.40635e-06
3.65116e-06
3.8813e-06
4.09017e-06
4.27429e-06
4.43252e-06
4.56547e-06
4.67486e-06
4.76307e-06
4.83278e-06
4.8867e-06
4.92739e-06
4.95712e-06
4.97781e-06
4.99092e-06
4.99744e-06
4.99788e-06
4.99216e-06
4.97966e-06
4.95919e-06
4.92892e-06
4.88643e-06
4.8287e-06
4.75214e-06
4.65276e-06
4.52629e-06
4.36844e-06
4.1752e-06
3.94325e-06
3.67035e-06
3.35587e-06
3.00129e-06
2.61085e-06
2.19236e-06
1.75833e-06
1.32719e-06
9.23846e-07
5.77257e-07
3.12695e-07
1.40408e-07
4.91986e-08
1.21411e-08
1.72531e-09
8.80772e-11
5.216e-13
4.56032e-06
4.76506e-06
5.01128e-06
5.32238e-06
5.6765e-06
6.04995e-06
6.42187e-06
6.77608e-06
7.1013e-06
7.39086e-06
7.64186e-06
7.85426e-06
8.03003e-06
8.17242e-06
8.28536e-06
8.37294e-06
8.43913e-06
8.48751e-06
8.52106e-06
8.54211e-06
8.55218e-06
8.55195e-06
8.54119e-06
8.51867e-06
8.48216e-06
8.42834e-06
8.35281e-06
8.25006e-06
8.11361e-06
7.93615e-06
7.70984e-06
7.42677e-06
7.07953e-06
6.66193e-06
6.16991e-06
5.60267e-06
4.96388e-06
4.26337e-06
3.51908e-06
2.75914e-06
2.02313e-06
1.3597e-06
8.17072e-07
4.25931e-07
1.84996e-07
6.32975e-08
1.53974e-08
2.17192e-09
1.10381e-10
6.51728e-13
7.74955e-06
8.14018e-06
8.51447e-06
8.94191e-06
9.42501e-06
9.93829e-06
1.04544e-05
1.0951e-05
1.14116e-05
1.18253e-05
1.21869e-05
1.24951e-05
1.27517e-05
1.29605e-05
1.31269e-05
1.32563e-05
1.33542e-05
1.34257e-05
1.34751e-05
1.35056e-05
1.35194e-05
1.35171e-05
1.34982e-05
1.34604e-05
1.33998e-05
1.33109e-05
1.31861e-05
1.30161e-05
1.279e-05
1.24954e-05
1.21188e-05
1.16469e-05
1.10668e-05
1.03685e-05
9.54575e-06
8.59886e-06
7.53746e-06
6.38365e-06
5.17527e-06
3.96782e-06
2.83252e-06
1.84686e-06
1.07551e-06
5.45158e-07
2.31439e-07
7.79465e-08
1.87718e-08
2.63438e-09
1.33447e-10
7.86501e-13
1.20535e-05
1.28064e-05
1.33758e-05
1.39638e-05
1.45863e-05
1.5245e-05
1.59094e-05
1.6553e-05
1.71541e-05
1.76983e-05
1.81772e-05
1.85881e-05
1.89321e-05
1.92137e-05
1.94387e-05
1.96143e-05
1.97474e-05
1.98444e-05
1.9911e-05
1.99513e-05
1.99677e-05
1.9961e-05
1.99297e-05
1.987e-05
1.97756e-05
1.96376e-05
1.94439e-05
1.918e-05
1.88283e-05
1.83691e-05
1.77811e-05
1.70429e-05
1.6135e-05
1.50421e-05
1.37568e-05
1.22843e-05
1.06472e-05
8.89039e-06
7.08448e-06
5.32379e-06
3.71634e-06
2.36496e-06
1.34324e-06
6.67062e-07
2.789e-07
9.30361e-08
2.22514e-08
3.11064e-09
1.56957e-10
9.19706e-13
1.73297e-05
1.87098e-05
1.95844e-05
2.04034e-05
2.11842e-05
2.19871e-05
2.27929e-05
2.35739e-05
2.43063e-05
2.49727e-05
2.55623e-05
2.60709e-05
2.64991e-05
2.68509e-05
2.71332e-05
2.7354e-05
2.75214e-05
2.76432e-05
2.77259e-05
2.77743e-05
2.77911e-05
2.77765e-05
2.77276e-05
2.76384e-05
2.74992e-05
2.72966e-05
2.70127e-05
2.66255e-05
2.61086e-05
2.54328e-05
2.45664e-05
2.34779e-05
2.21393e-05
2.05307e-05
1.86466e-05
1.6503e-05
1.41458e-05
1.16559e-05
9.1493e-06
6.76587e-06
4.64629e-06
2.90463e-06
1.61584e-06
7.89343e-07
3.26739e-07
1.08718e-07
2.59543e-08
3.62862e-09
1.83259e-10
1.07544e-12
2.32507e-05
2.55754e-05
2.68969e-05
2.80256e-05
2.90271e-05
2.99785e-05
3.09145e-05
3.18148e-05
3.26583e-05
3.3427e-05
3.41092e-05
3.46999e-05
3.5199e-05
3.56107e-05
3.5942e-05
3.62014e-05
3.6398e-05
3.65403e-05
3.66355e-05
3.66887e-05
3.67022e-05
3.66752e-05
3.66029e-05
3.64764e-05
3.62817e-05
3.59993e-05
3.56041e-05
3.50648e-05
3.43444e-05
3.34015e-05
3.21921e-05
3.0673e-05
2.88074e-05
2.65725e-05
2.39691e-05
2.10329e-05
1.78446e-05
1.45341e-05
1.12725e-05
8.24578e-06
5.61368e-06
3.47109e-06
1.8961e-06
9.12887e-07
3.75618e-07
1.25744e-07
3.01256e-08
4.21223e-09
2.11382e-10
1.22366e-12
2.9397e-05
3.29681e-05
3.48878e-05
3.64169e-05
3.77224e-05
3.88416e-05
3.98994e-05
4.09003e-05
4.18308e-05
4.26767e-05
4.34275e-05
4.40783e-05
4.46294e-05
4.50848e-05
4.54518e-05
4.57394e-05
4.59568e-05
4.61129e-05
4.62152e-05
4.62683e-05
4.62741e-05
4.623e-05
4.61289e-05
4.5958e-05
4.56982e-05
4.53232e-05
4.4799e-05
4.40837e-05
4.31278e-05
4.18764e-05
4.02714e-05
3.82577e-05
3.57903e-05
3.28465e-05
2.94389e-05
2.56312e-05
2.15497e-05
1.73837e-05
1.33668e-05
9.73175e-06
6.63857e-06
4.07022e-06
2.1831e-06
1.0429e-06
4.32217e-07
1.48816e-07
3.63946e-08
5.15344e-09
2.56728e-10
1.3746e-12
3.53665e-05
4.03996e-05
4.30412e-05
4.50499e-05
4.67136e-05
4.8069e-05
4.92508e-05
5.03398e-05
5.1337e-05
5.22367e-05
5.30321e-05
5.37206e-05
5.43033e-05
5.47851e-05
5.51732e-05
5.54768e-05
5.57053e-05
5.58676e-05
5.59706e-05
5.60188e-05
5.60124e-05
5.59471e-05
5.58128e-05
5.55923e-05
5.52609e-05
5.47845e-05
5.41196e-05
5.32126e-05
5.20008e-05
5.04146e-05
4.83821e-05
4.5836e-05
4.27254e-05
3.90304e-05
3.47805e-05
3.00733e-05
2.50862e-05
2.00745e-05
1.53429e-05
1.11951e-05
8.82554e-06
5.17777e-06
2.76626e-06
1.34543e-06
5.98701e-07
2.24181e-07
6.3868e-08
1.10854e-08
8.12991e-10
6.01883e-12
4.08529e-05
4.744e-05
5.0874e-05
5.34143e-05
5.54599e-05
5.71209e-05
5.84476e-05
5.96196e-05
6.06704e-05
6.16065e-05
6.2428e-05
6.31356e-05
6.37329e-05
6.42256e-05
6.46217e-05
6.49304e-05
6.51611e-05
6.53224e-05
6.54207e-05
6.54593e-05
6.54373e-05
6.53479e-05
6.51778e-05
6.49053e-05
6.44995e-05
6.39184e-05
6.31087e-05
6.2005e-05
6.05311e-05
5.86032e-05
5.61357e-05
5.3051e-05
4.92937e-05
4.48499e-05
3.97684e-05
3.41815e-05
2.8316e-05
2.24859e-05
1.70532e-05
1.23327e-05
9.34323e-06
5.45795e-06
2.79033e-06
1.34389e-06
6.142e-07
2.41402e-07
6.93994e-08
1.20346e-08
8.31618e-10
4.82567e-12
4.56711e-05
5.37818e-05
5.80164e-05
6.11016e-05
6.35392e-05
6.55116e-05
6.70338e-05
6.82912e-05
6.93902e-05
7.03526e-05
7.11883e-05
7.19027e-05
7.25025e-05
7.29953e-05
7.33897e-05
7.36954e-05
7.39215e-05
7.40764e-05
7.41658e-05
7.4192e-05
7.41522e-05
7.40375e-05
7.38311e-05
7.3507e-05
7.3028e-05
7.23448e-05
7.13941e-05
7.00994e-05
6.83717e-05
6.6114e-05
6.32286e-05
5.96289e-05
5.52572e-05
5.01072e-05
4.42479e-05
3.7844e-05
3.11628e-05
2.45602e-05
1.84364e-05
1.31167e-05
9.65873e-06
5.44483e-06
2.70507e-06
1.30667e-06
6.20594e-07
2.46933e-07
6.93896e-08
1.19333e-08
8.03626e-10
4.83371e-12
4.97447e-05
5.92531e-05
6.42416e-05
6.78483e-05
7.06652e-05
7.29223e-05
7.46748e-05
7.6029e-05
7.71739e-05
7.8158e-05
7.90018e-05
7.97165e-05
8.03122e-05
8.07988e-05
8.11859e-05
8.14836e-05
8.17012e-05
8.18466e-05
8.19249e-05
8.19371e-05
8.18791e-05
8.17396e-05
8.14986e-05
8.11259e-05
8.05788e-05
7.98006e-05
7.87197e-05
7.72489e-05
7.5288e-05
7.27283e-05
6.94617e-05
6.53947e-05
6.04689e-05
5.46863e-05
4.81356e-05
4.10124e-05
3.36204e-05
2.63483e-05
1.9625e-05
1.38155e-05
1.01155e-05
5.57699e-06
2.77876e-06
1.37446e-06
6.66389e-07
2.22171e-07
5.54531e-08
1.00023e-08
6.11867e-10
3.00712e-12
5.30741e-05
6.37956e-05
6.94522e-05
7.35282e-05
7.66909e-05
7.92052e-05
8.11734e-05
8.26435e-05
8.38324e-05
8.48366e-05
8.56863e-05
8.63989e-05
8.69881e-05
8.7466e-05
8.78437e-05
8.81315e-05
8.83391e-05
8.84739e-05
8.85405e-05
8.8539e-05
8.84637e-05
8.83013e-05
8.8029e-05
8.76129e-05
8.70054e-05
8.61435e-05
8.49478e-05
8.33224e-05
8.11574e-05
7.83344e-05
7.47367e-05
7.02659e-05
6.48639e-05
5.85407e-05
5.14029e-05
4.36735e-05
3.56906e-05
2.78756e-05
2.06844e-05
1.45296e-05
1.07022e-05
5.94084e-06
3.03183e-06
1.53561e-06
7.38604e-07
2.36402e-07
6.42312e-08
1.17093e-08
7.46765e-10
4.69418e-12
5.57069e-05
6.74298e-05
7.36472e-05
7.81224e-05
8.15831e-05
8.43206e-05
8.64654e-05
8.8061e-05
8.9296e-05
9.03192e-05
9.11741e-05
9.18846e-05
9.24675e-05
9.29369e-05
9.33053e-05
9.35836e-05
9.37815e-05
9.39063e-05
9.39621e-05
9.39482e-05
9.38576e-05
9.36753e-05
9.33763e-05
9.29233e-05
9.22646e-05
9.13321e-05
9.00401e-05
8.82853e-05
8.595e-05
8.29078e-05
7.90359e-05
7.42321e-05
6.84396e-05
6.16763e-05
5.40635e-05
4.58468e-05
3.73936e-05
2.9155e-05
2.16063e-05
1.5178e-05
1.11953e-05
6.34213e-06
3.28916e-06
1.67799e-06
8.00178e-07
2.49278e-07
6.83693e-08
1.16009e-08
8.22257e-10
5.79868e-12
5.7712e-05
7.0221e-05
7.68844e-05
8.16808e-05
8.53846e-05
8.83064e-05
9.0594e-05
9.23041e-05
9.35847e-05
9.46229e-05
9.54821e-05
9.61911e-05
9.6769e-05
9.72317e-05
9.75924e-05
9.78628e-05
9.80526e-05
9.81691e-05
9.82158e-05
9.81916e-05
9.80884e-05
9.789e-05
9.75693e-05
9.70865e-05
9.63868e-05
9.53977e-05
9.40287e-05
9.21708e-05
8.97001e-05
8.64844e-05
8.2396e-05
7.73305e-05
7.12327e-05
6.41271e-05
5.61475e-05
4.75567e-05
3.87437e-05
3.01829e-05
2.23638e-05
1.57165e-05
1.15474e-05
6.61012e-06
3.43822e-06
1.75518e-06
8.34644e-07
2.62173e-07
7.35902e-08
1.2967e-08
9.50377e-10
4.79015e-12
5.91635e-05
7.22532e-05
7.92492e-05
8.42877e-05
8.81772e-05
9.12417e-05
9.36389e-05
9.54422e-05
9.6766e-05
9.78151e-05
9.86776e-05
9.93859e-05
9.99607e-05
0.000100419
0.000100774
0.000101039
0.000101223
0.000101333
0.000101373
0.000101341
0.000101229
0.000101018
0.000100681
0.000100175
9.94445e-05
9.84128e-05
9.69858e-05
9.50504e-05
9.24781e-05
8.91328e-05
8.48833e-05
7.96238e-05
7.33006e-05
6.59437e-05
5.76963e-05
4.88336e-05
3.97583e-05
3.09596e-05
2.29352e-05
1.61105e-05
1.18016e-05
6.77253e-06
3.51964e-06
1.79599e-06
8.58238e-07
2.79802e-07
7.84351e-08
1.43141e-08
8.77726e-10
1.11784e-11
6.01296e-05
7.36112e-05
8.08336e-05
8.60382e-05
9.00566e-05
9.32219e-05
9.56968e-05
9.75674e-05
9.89268e-05
9.99836e-05
0.000100849
0.000101557
0.000102131
0.000102587
0.000102939
0.000103201
0.000103381
0.000103488
0.000103524
0.000103486
0.000103367
0.000103148
0.0001028
0.000102279
0.000101527
0.000100466
9.89988e-05
9.70098e-05
9.43677e-05
9.09333e-05
8.65734e-05
8.11817e-05
7.47057e-05
6.71791e-05
5.87519e-05
4.9708e-05
4.04586e-05
3.15013e-05
2.33409e-05
1.64075e-05
1.20202e-05
6.91941e-06
3.60519e-06
1.84309e-06
8.90425e-07
2.96004e-07
8.65802e-08
1.63739e-08
1.06688e-09
1.22105e-11
6.06714e-05
7.43813e-05
8.17394e-05
8.70442e-05
9.11407e-05
9.43678e-05
9.68908e-05
9.8804e-05
0.000100187
0.000101249
0.000102116
0.000102826
0.000103399
0.000103855
0.000104207
0.000104467
0.000104647
0.000104752
0.000104785
0.000104746
0.000104623
0.0001044
0.000104045
0.000103516
0.000102751
0.000101673
0.000100182
9.81621e-05
9.54789e-05
9.19922e-05
8.75676e-05
8.20984e-05
7.55331e-05
6.79076e-05
5.93761e-05
5.02276e-05
4.08788e-05
3.18314e-05
2.35949e-05
1.6605e-05
1.21819e-05
7.06723e-06
3.70747e-06
1.9028e-06
9.23466e-07
3.08091e-07
9.4545e-08
2.02526e-08
2.68149e-09
6.33737e-11
6.08384e-05
7.46237e-05
8.20296e-05
8.73708e-05
9.14955e-05
9.4745e-05
9.72853e-05
9.92142e-05
0.000100607
0.000101669
0.000102538
0.000103249
0.000103825
0.000104281
0.000104634
0.000104896
0.000105075
0.000105181
0.000105215
0.000105175
0.000105053
0.000104829
0.000104473
0.000103941
0.000103173
0.00010209
0.000100593
9.85632e-05
9.58669e-05
9.23628e-05
8.79163e-05
8.24204e-05
7.58239e-05
6.81639e-05
5.95956e-05
5.04105e-05
4.10272e-05
3.19497e-05
2.36893e-05
1.66857e-05
1.22144e-05
7.15846e-06
3.77208e-06
1.94187e-06
9.43515e-07
3.20035e-07
9.97342e-08
2.35768e-08
4.06447e-09
3.24401e-10
6.06621e-05
7.43749e-05
8.17407e-05
8.7053e-05
9.11547e-05
9.43863e-05
9.69126e-05
9.88245e-05
0.000100205
0.000101268
0.00010214
0.000102853
0.00010343
0.000103889
0.000104244
0.000104508
0.00010469
0.000104797
0.000104834
0.000104797
0.000104677
0.000104456
0.000104105
0.000103578
0.000102817
0.000101741
0.000100254
9.82358e-05
9.55538e-05
9.20669e-05
8.76404e-05
8.21673e-05
7.55962e-05
6.79633e-05
5.9423e-05
5.02655e-05
4.09084e-05
3.18542e-05
2.36112e-05
1.66116e-05
1.21226e-05
7.12924e-06
3.74872e-06
1.92803e-06
9.35179e-07
3.13725e-07
9.56865e-08
2.12684e-08
2.87035e-09
8.63414e-11
6.01272e-05
7.36136e-05
8.08454e-05
8.6059e-05
9.00834e-05
9.32539e-05
9.57313e-05
9.75975e-05
9.89519e-05
0.000100012
0.000100884
0.000101599
0.000102179
0.000102641
0.000102999
0.000103267
0.000103452
0.000103564
0.000103605
0.000103573
0.000103459
0.000103246
0.000102903
0.000102388
0.000101642
0.000100587
9.91254e-05
9.71405e-05
9.45004e-05
9.10651e-05
8.6701e-05
8.13013e-05
7.48136e-05
6.72722e-05
5.88282e-05
4.97673e-05
4.05023e-05
3.15317e-05
2.33614e-05
1.6422e-05
1.19064e-05
6.99764e-06
3.65627e-06
1.87084e-06
9.01537e-07
2.96945e-07
8.66327e-08
1.7137e-08
1.74942e-09
1.32077e-11
5.91933e-05
7.22893e-05
7.92903e-05
8.43327e-05
8.82237e-05
9.12893e-05
9.36835e-05
9.54768e-05
9.67932e-05
9.78452e-05
9.87148e-05
9.94307e-05
0.000100014
0.00010048
0.000100843
0.000101116
0.000101308
0.000101425
0.000101473
0.000101448
0.000101343
0.000101141
0.000100812
0.000100315
9.95936e-05
9.85704e-05
9.71508e-05
9.52207e-05
9.26505e-05
8.93029e-05
8.5046e-05
7.97736e-05
7.34324e-05
6.60532e-05
5.77813e-05
4.88947e-05
3.97971e-05
3.09784e-05
2.29376e-05
1.60988e-05
1.16822e-05
6.83577e-06
3.55427e-06
1.80994e-06
8.64348e-07
2.78068e-07
7.92889e-08
1.47139e-08
1.41732e-09
1.16965e-11
5.77828e-05
7.03046e-05
7.69701e-05
8.17648e-05
8.5464e-05
8.83799e-05
9.06559e-05
9.23492e-05
9.36201e-05
9.46598e-05
9.55244e-05
9.62403e-05
9.68264e-05
9.72979e-05
9.76678e-05
9.79474e-05
9.81465e-05
9.82722e-05
9.83283e-05
9.83136e-05
9.82203e-05
9.80322e-05
9.77224e-05
9.72508e-05
9.65622e-05
9.55837e-05
9.42233e-05
9.23711e-05
8.99016e-05
8.66814e-05
8.25815e-05
7.74972e-05
7.1374e-05
6.4238e-05
5.62262e-05
4.7605e-05
3.87651e-05
3.01847e-05
2.23568e-05
1.57114e-05
1.13594e-05
6.69257e-06
3.4759e-06
1.76855e-06
8.36915e-07
2.60748e-07
7.39948e-08
1.32613e-08
9.97551e-10
5.31795e-12
5.58418e-05
6.75883e-05
7.38052e-05
7.82716e-05
8.1719e-05
8.44403e-05
8.65617e-05
8.81322e-05
8.93545e-05
9.03751e-05
9.12315e-05
9.19463e-05
9.25357e-05
9.30131e-05
9.33904e-05
9.36783e-05
9.38863e-05
9.40216e-05
9.40881e-05
9.40853e-05
9.40064e-05
9.38364e-05
9.35502e-05
9.31103e-05
9.24645e-05
9.15438e-05
9.0261e-05
8.85115e-05
8.61756e-05
8.31255e-05
7.92368e-05
7.44072e-05
6.85808e-05
6.1778e-05
5.41243e-05
4.58698e-05
3.73863e-05
2.91326e-05
2.15861e-05
1.51655e-05
1.10021e-05
6.49336e-06
3.37876e-06
1.72007e-06
8.11293e-07
2.45992e-07
6.86712e-08
1.17086e-08
6.91663e-10
5.18047e-12
5.32938e-05
6.40539e-05
6.97077e-05
7.37663e-05
7.69047e-05
7.93896e-05
8.13214e-05
8.27573e-05
8.39283e-05
8.49236e-05
8.57691e-05
8.64815e-05
8.70739e-05
8.75574e-05
8.79425e-05
8.82394e-05
8.8457e-05
8.86026e-05
8.86807e-05
8.86914e-05
8.86291e-05
8.84802e-05
8.82222e-05
8.78206e-05
8.72269e-05
8.63774e-05
8.51908e-05
8.35695e-05
8.14014e-05
7.85661e-05
7.49458e-05
7.04416e-05
6.49966e-05
5.86243e-05
5.14359e-05
4.36604e-05
3.5644e-05
2.78194e-05
2.06432e-05
1.45326e-05
1.03623e-05
6.1579e-06
3.18324e-06
1.61544e-06
7.66117e-07
2.34589e-07
6.41014e-08
1.21514e-08
6.85199e-10
4.00384e-12
5.00666e-05
5.96304e-05
6.46134e-05
6.81925e-05
7.09722e-05
7.31842e-05
7.48873e-05
7.61998e-05
7.73189e-05
7.82859e-05
7.91181e-05
7.98267e-05
8.04208e-05
8.09094e-05
8.13015e-05
8.16065e-05
8.18333e-05
8.19891e-05
8.2079e-05
8.21038e-05
8.20594e-05
8.19342e-05
8.17083e-05
8.13507e-05
8.08179e-05
8.0052e-05
7.89793e-05
7.75107e-05
7.55436e-05
7.29672e-05
6.96718e-05
6.55637e-05
6.0586e-05
5.4744e-05
4.8132e-05
4.09532e-05
3.3521e-05
2.62314e-05
1.95002e-05
1.37009e-05
9.8258e-06
5.7248e-06
2.88707e-06
1.44531e-06
6.97601e-07
2.2242e-07
5.54911e-08
1.03412e-08
6.29757e-10
2.51819e-12
4.61057e-05
5.42865e-05
5.85116e-05
6.15577e-05
6.39442e-05
6.5856e-05
6.73164e-05
6.8526e-05
6.95901e-05
7.05259e-05
7.13419e-05
7.20435e-05
7.26362e-05
7.31266e-05
7.35227e-05
7.38333e-05
7.40669e-05
7.42312e-05
7.43316e-05
7.43701e-05
7.43439e-05
7.42437e-05
7.40525e-05
7.37434e-05
7.32785e-05
7.26067e-05
7.16629e-05
7.03682e-05
6.86312e-05
6.63525e-05
6.34328e-05
5.97853e-05
5.5354e-05
5.01363e-05
4.42076e-05
3.77415e-05
3.10156e-05
2.43895e-05
1.8247e-05
1.29371e-05
9.30412e-06
5.41418e-06
2.67839e-06
1.30192e-06
6.23884e-07
2.47587e-07
6.57157e-08
1.14511e-08
8.10598e-10
4.23149e-12
4.13989e-05
4.8065e-05
5.14834e-05
5.39724e-05
5.59536e-05
5.75418e-05
5.87982e-05
5.99152e-05
6.09222e-05
6.18228e-05
6.2617e-05
6.33051e-05
6.38897e-05
6.43755e-05
6.47697e-05
6.50805e-05
6.53164e-05
6.54855e-05
6.55937e-05
6.56438e-05
6.56347e-05
6.55593e-05
6.54037e-05
6.51457e-05
6.47529e-05
6.4182e-05
6.33775e-05
6.22716e-05
6.07856e-05
5.88333e-05
5.63276e-05
5.31906e-05
4.93686e-05
4.48517e-05
3.96956e-05
3.40411e-05
2.81239e-05
2.22633e-05
1.68138e-05
1.20989e-05
9.08288e-06
5.38392e-06
2.68145e-06
1.29015e-06
5.99535e-07
2.39311e-07
6.85532e-08
1.16744e-08
7.60285e-10
4.69094e-12
3.60083e-05
4.11193e-05
4.37373e-05
4.56839e-05
4.7272e-05
4.85464e-05
4.9655e-05
5.06829e-05
5.1629e-05
5.24863e-05
5.32484e-05
5.39119e-05
5.44771e-05
5.49479e-05
5.53306e-05
5.56334e-05
5.58648e-05
5.6033e-05
5.61443e-05
5.62026e-05
5.62079e-05
5.61555e-05
5.60345e-05
5.58272e-05
5.55074e-05
5.50396e-05
5.43781e-05
5.34671e-05
5.22412e-05
5.06288e-05
4.85561e-05
4.5956e-05
4.27791e-05
3.90101e-05
3.46852e-05
2.99112e-05
2.48773e-05
1.98558e-05
1.51751e-05
1.11567e-05
8.23958e-06
5.34475e-06
2.77852e-06
1.34025e-06
6.06608e-07
2.34514e-07
6.7146e-08
1.16086e-08
7.89169e-10
5.14712e-12
3.01021e-05
3.37386e-05
3.56262e-05
3.70861e-05
3.83109e-05
3.93466e-05
4.03309e-05
4.12683e-05
4.2144e-05
4.29439e-05
4.36578e-05
4.42802e-05
4.48104e-05
4.52519e-05
4.56108e-05
4.5895e-05
4.61131e-05
4.62732e-05
4.63819e-05
4.64435e-05
4.64594e-05
4.64265e-05
4.63371e-05
4.61775e-05
4.59276e-05
4.55595e-05
4.50371e-05
4.43164e-05
4.33457e-05
4.20677e-05
4.04232e-05
3.83568e-05
3.58256e-05
3.28107e-05
2.9332e-05
2.54623e-05
2.13389e-05
1.71692e-05
1.32244e-05
9.8003e-06
6.76028e-06
4.08412e-06
2.1895e-06
1.03316e-06
4.39901e-07
1.52255e-07
3.6507e-08
5.38723e-09
2.54061e-10
1.35414e-12
2.39725e-05
2.63407e-05
2.76233e-05
2.86803e-05
2.96026e-05
3.04759e-05
3.1342e-05
3.21804e-05
3.29697e-05
3.36927e-05
3.43376e-05
3.48989e-05
3.53759e-05
3.57721e-05
3.60934e-05
3.63478e-05
3.65433e-05
3.66878e-05
3.67877e-05
3.68475e-05
3.68692e-05
3.68514e-05
3.67888e-05
3.66717e-05
3.64849e-05
3.62077e-05
3.58131e-05
3.52678e-05
3.45329e-05
3.3565e-05
3.2319e-05
3.07516e-05
2.88278e-05
2.65285e-05
2.38611e-05
2.08702e-05
1.76448e-05
1.43193e-05
1.10739e-05
8.16484e-06
5.63959e-06
3.47814e-06
1.90009e-06
9.2393e-07
3.84498e-07
1.28114e-07
3.10668e-08
4.30291e-09
2.14168e-10
1.25167e-12
1.80133e-05
1.94121e-05
2.02452e-05
2.09969e-05
2.17062e-05
2.24414e-05
2.31854e-05
2.39107e-05
2.45939e-05
2.52183e-05
2.57732e-05
2.6254e-05
2.66607e-05
2.69971e-05
2.72691e-05
2.74839e-05
2.7649e-05
2.77715e-05
2.78572e-05
2.79105e-05
2.79336e-05
2.79262e-05
2.78849e-05
2.7803e-05
2.767e-05
2.7471e-05
2.71868e-05
2.67936e-05
2.62636e-05
2.55658e-05
2.46675e-05
2.35374e-05
2.21488e-05
2.04849e-05
1.85457e-05
1.63562e-05
1.39721e-05
1.14774e-05
8.97353e-06
6.63533e-06
4.58068e-06
2.87001e-06
1.60031e-06
7.84416e-07
3.26676e-07
1.0852e-07
2.60148e-08
3.62049e-09
1.81811e-10
1.06445e-12
1.26473e-05
1.33983e-05
1.39295e-05
1.44603e-05
1.50251e-05
1.56292e-05
1.62432e-05
1.68405e-05
1.74006e-05
1.79092e-05
1.83583e-05
1.87449e-05
1.907e-05
1.93375e-05
1.95529e-05
1.97225e-05
1.98527e-05
1.99495e-05
2.00178e-05
2.00614e-05
2.00824e-05
2.0081e-05
2.00554e-05
2.0001e-05
1.9911e-05
1.97753e-05
1.95809e-05
1.93117e-05
1.89489e-05
1.84716e-05
1.78577e-05
1.70859e-05
1.61375e-05
1.49995e-05
1.36685e-05
1.21554e-05
1.04919e-05
8.73138e-06
6.93171e-06
5.19329e-06
3.62433e-06
2.30766e-06
1.31107e-06
6.50624e-07
2.72648e-07
9.0898e-08
2.17601e-08
3.03026e-09
1.52366e-10
8.92222e-13
8.2187e-06
8.59612e-06
8.93991e-06
9.32421e-06
9.76548e-06
1.02386e-05
1.07168e-05
1.11783e-05
1.16072e-05
1.19932e-05
1.23312e-05
1.26199e-05
1.28611e-05
1.30584e-05
1.32165e-05
1.33406e-05
1.34357e-05
1.35064e-05
1.35567e-05
1.35893e-05
1.36061e-05
1.36075e-05
1.35925e-05
1.35583e-05
1.35007e-05
1.34132e-05
1.32874e-05
1.31132e-05
1.28785e-05
1.257e-05
1.21738e-05
1.16763e-05
1.10658e-05
1.03336e-05
9.47618e-06
8.49699e-06
7.41065e-06
6.24778e-06
5.04293e-06
3.84949e-06
2.73891e-06
1.78159e-06
1.03494e-06
5.22945e-07
2.21769e-07
7.44796e-08
1.78794e-08
2.49228e-09
1.25336e-10
7.3377e-13
4.89429e-06
5.08402e-06
5.30959e-06
5.59241e-06
5.9192e-06
6.26582e-06
6.61184e-06
6.94162e-06
7.24446e-06
7.51411e-06
7.74796e-06
7.94609e-06
8.11044e-06
8.2441e-06
8.35072e-06
8.43409e-06
8.49788e-06
8.54532e-06
8.57915e-06
8.60139e-06
8.61336e-06
8.61548e-06
8.60723e-06
8.58709e-06
8.5524e-06
8.49936e-06
8.42296e-06
8.31702e-06
8.17437e-06
7.98708e-06
7.74692e-06
7.44591e-06
7.0771e-06
6.6355e-06
6.11896e-06
5.52867e-06
4.87039e-06
4.15896e-06
3.41359e-06
2.66116e-06
1.94058e-06
1.29762e-06
7.75764e-07
4.02184e-07
1.73867e-07
5.91127e-08
1.42776e-08
1.99482e-09
1.00359e-10
5.87347e-13
2.63915e-06
2.74297e-06
2.894e-06
3.09107e-06
3.31492e-06
3.54809e-06
3.77691e-06
3.9916e-06
4.18605e-06
4.35714e-06
4.50403e-06
4.62744e-06
4.72912e-06
4.81136e-06
4.87668e-06
4.92761e-06
4.96651e-06
4.99543e-06
5.01611e-06
5.02984e-06
5.03745e-06
5.03926e-06
5.03503e-06
5.02394e-06
5.00452e-06
4.97463e-06
4.93147e-06
4.87157e-06
4.79094e-06
4.68518e-06
4.54977e-06
4.38034e-06
4.17312e-06
3.92544e-06
3.63625e-06
3.30641e-06
2.93843e-06
2.53879e-06
2.11699e-06
1.68566e-06
1.26294e-06
8.72569e-07
5.41023e-07
2.90703e-07
1.29462e-07
4.49213e-08
1.09704e-08
1.53971e-09
7.75427e-11
4.53659e-13
1.26655e-06
1.32947e-06
1.42747e-06
1.55295e-06
1.6917e-06
1.83284e-06
1.96848e-06
2.0935e-06
2.20505e-06
2.30201e-06
2.38443e-06
2.45314e-06
2.50941e-06
2.5547e-06
2.59056e-06
2.61845e-06
2.63972e-06
2.65553e-06
2.66687e-06
2.67444e-06
2.67873e-06
2.67992e-06
2.67793e-06
2.67232e-06
2.66237e-06
2.64695e-06
2.62463e-06
2.59363e-06
2.5519e-06
2.49718e-06
2.4272e-06
2.33978e-06
2.23306e-06
2.10572e-06
1.95728e-06
1.78838e-06
1.6004e-06
1.39621e-06
1.18016e-06
9.57886e-07
7.36907e-07
5.27236e-07
3.41296e-07
1.92304e-07
8.95459e-08
3.21458e-08
8.00924e-09
1.13381e-09
5.72265e-11
3.3471e-13
5.26216e-07
5.6494e-07
6.23344e-07
6.94284e-07
7.6995e-07
8.4474e-07
9.14938e-07
9.7841e-07
1.03419e-06
1.08212e-06
1.1225e-06
1.15595e-06
1.1832e-06
1.20506e-06
1.22232e-06
1.23573e-06
1.24594e-06
1.25354e-06
1.25899e-06
1.26265e-06
1.26476e-06
1.26541e-06
1.26456e-06
1.26202e-06
1.25746e-06
1.25036e-06
1.24005e-06
1.22572e-06
1.20642e-06
1.18111e-06
1.14876e-06
1.10837e-06
1.05915e-06
1.00051e-06
9.32247e-07
8.54715e-07
7.68674e-07
6.7543e-07
5.76906e-07
4.75524e-07
3.74245e-07
2.7672e-07
1.87457e-07
1.1188e-07
5.54911e-08
2.10683e-08
5.4488e-09
7.84728e-10
3.97896e-11
2.3271e-13
1.81222e-07
2.0306e-07
2.33038e-07
2.67078e-07
3.01881e-07
3.35181e-07
3.65658e-07
3.92698e-07
4.16138e-07
4.36078e-07
4.52764e-07
4.66515e-07
4.77681e-07
4.86616e-07
4.93659e-07
4.99121e-07
5.03282e-07
5.06379e-07
5.08606e-07
5.10108e-07
5.10982e-07
5.1127e-07
5.10957e-07
5.0997e-07
5.08172e-07
5.05361e-07
5.01269e-07
4.95571e-07
4.8789e-07
4.77817e-07
4.64938e-07
4.48866e-07
4.29285e-07
4.05988e-07
3.78899e-07
3.48164e-07
3.14127e-07
2.77337e-07
2.3857e-07
1.98793e-07
1.59127e-07
1.20825e-07
8.52731e-08
5.40531e-08
2.90312e-08
1.20221e-08
3.33501e-09
4.98442e-10
2.55409e-11
1.49434e-13
4.82979e-08
5.84841e-08
7.06201e-08
8.35467e-08
9.61693e-08
1.0784e-07
1.18266e-07
1.27365e-07
1.35168e-07
1.41758e-07
1.47248e-07
1.51757e-07
1.55411e-07
1.58331e-07
1.6063e-07
1.62413e-07
1.63771e-07
1.64782e-07
1.6551e-07
1.66003e-07
1.66293e-07
1.66393e-07
1.663e-07
1.65988e-07
1.65416e-07
1.64516e-07
1.63203e-07
1.61371e-07
1.58899e-07
1.55656e-07
1.51507e-07
1.46327e-07
1.40017e-07
1.32512e-07
1.23792e-07
1.13903e-07
1.02965e-07
9.11619e-08
7.87527e-08
6.60587e-08
5.3447e-08
4.13117e-08
3.00499e-08
2.00461e-08
1.16903e-08
5.43664e-09
1.70802e-09
2.77792e-10
1.46432e-11
8.58441e-14
8.90327e-09
1.2223e-08
1.57013e-08
1.91608e-08
2.23789e-08
2.52605e-08
2.77847e-08
2.99625e-08
3.18173e-08
3.33777e-08
3.46739e-08
3.5737e-08
3.65975e-08
3.72845e-08
3.78253e-08
3.82445e-08
3.85639e-08
3.88019e-08
3.89735e-08
3.90901e-08
3.91593e-08
3.91842e-08
3.91638e-08
3.90926e-08
3.89603e-08
3.87515e-08
3.8446e-08
3.80188e-08
3.74414e-08
3.6683e-08
3.57124e-08
3.45001e-08
3.30224e-08
3.12647e-08
2.92231e-08
2.69085e-08
2.4349e-08
2.15896e-08
1.86921e-08
1.57335e-08
1.28019e-08
9.99155e-09
7.39566e-09
5.09821e-09
3.16703e-09
1.6556e-09
6.23817e-10
1.22206e-10
7.03806e-12
4.16946e-14
9.33386e-10
1.52747e-09
2.09075e-09
2.61208e-09
3.07616e-09
3.48221e-09
3.83384e-09
4.13548e-09
4.39159e-09
4.60664e-09
4.78508e-09
4.93131e-09
5.04959e-09
5.14398e-09
5.21826e-09
5.27583e-09
5.31969e-09
5.3524e-09
5.37603e-09
5.39213e-09
5.40176e-09
5.40534e-09
5.40274e-09
5.3932e-09
5.37529e-09
5.34689e-09
5.30518e-09
5.24673e-09
5.16757e-09
5.06345e-09
4.93006e-09
4.76338e-09
4.56005e-09
4.31809e-09
4.03704e-09
3.71841e-09
3.36611e-09
2.98644e-09
2.588e-09
2.1815e-09
1.77924e-09
1.39436e-09
1.03987e-09
7.27586e-10
4.66785e-10
2.63055e-10
1.17837e-10
3.15921e-11
2.41276e-12