/*--------------------------------*- C++ -*----------------------------------*\
| =========                 |                                                 |
| \\      /  F ield         | foam-extend: Open Source CFD                    |
|  \\    /   O peration     | Version:     4.0                                |
|   \\  /    A nd           | Web:         http://www.foam-extend.org         |
|    \\/     M anipulation  |                                                 |
\*---------------------------------------------------------------------------*/
FoamFile
{
    version     2.0;
    format      ascii;
    class       volScalarField;
    location    "0.0005";
    object      omega;
}
// * * * * * * * * * * * * * * * * * * * * * * * * * * * * * * * * * * * * * //

dimensions      [0 0 -1 0 0 0 0];

internalField   nonuniform List<scalar> 
28770
(
1.87595e+07
1.87595e+07
1.87595e+07
1.87595e+07
1.87595e+07
1.87595e+07
1.87595e+07
1.87595e+07
1.87595e+07
1.87595e+07
1.87595e+07
1.87595e+07
1.87595e+07
1.87595e+07
1.87595e+07
1.87595e+07
1.87595e+07
1.87595e+07
1.87595e+07
1.87595e+07
1.87595e+07
1.87595e+07
1.87595e+07
1.87595e+07
1.87595e+07
1.87595e+07
1.87595e+07
1.87595e+07
1.87595e+07
1.87595e+07
1.87595e+07
1.87595e+07
1.87595e+07
1.87595e+07
1.87595e+07
1.87595e+07
1.87595e+07
1.87595e+07
1.87595e+07
1.87595e+07
1.87595e+07
1.87595e+07
1.87595e+07
1.87595e+07
1.87595e+07
1.87595e+07
1.87595e+07
1.87595e+07
1.87595e+07
1.87595e+07
2.70015e+06
3.18574e+06
3.23008e+06
3.23475e+06
3.23538e+06
3.23549e+06
3.23552e+06
3.23553e+06
3.23554e+06
3.23554e+06
3.23554e+06
3.23554e+06
3.23554e+06
3.23554e+06
3.23554e+06
3.23554e+06
3.23554e+06
3.23554e+06
3.23554e+06
3.23554e+06
3.23554e+06
3.23554e+06
3.23554e+06
3.23554e+06
3.23554e+06
3.23554e+06
3.23554e+06
3.23554e+06
3.23555e+06
3.23555e+06
3.23555e+06
3.23555e+06
3.23555e+06
3.23555e+06
3.23555e+06
3.23555e+06
3.23556e+06
3.23556e+06
3.23556e+06
3.23557e+06
3.23558e+06
3.23561e+06
3.23568e+06
3.23585e+06
3.23644e+06
3.23892e+06
3.25306e+06
3.36211e+06
4.43127e+06
1.79872e+07
679439
1.01714e+06
1.08474e+06
1.09848e+06
1.10156e+06
1.10235e+06
1.10259e+06
1.10267e+06
1.1027e+06
1.10272e+06
1.10272e+06
1.10273e+06
1.10273e+06
1.10273e+06
1.10273e+06
1.10273e+06
1.10273e+06
1.10273e+06
1.10273e+06
1.10273e+06
1.10273e+06
1.10273e+06
1.10273e+06
1.10273e+06
1.10273e+06
1.10273e+06
1.10273e+06
1.10273e+06
1.10273e+06
1.10274e+06
1.10274e+06
1.10274e+06
1.10274e+06
1.10274e+06
1.10275e+06
1.10275e+06
1.10276e+06
1.10278e+06
1.10281e+06
1.10287e+06
1.10298e+06
1.10322e+06
1.10379e+06
1.10531e+06
1.1099e+06
1.12603e+06
1.19191e+06
1.50335e+06
3.24976e+06
1.79872e+07
228632
431019
496282
516087
522239
524274
525005
525291
525414
525470
525498
525513
525521
525525
525528
525530
525531
525531
525532
525532
525533
525533
525533
525534
525534
525535
525536
525537
525538
525540
525544
525548
525555
525565
525581
525606
525648
525718
525843
526073
526524
527462
529563
534662
548177
587435
712735
1.16002e+06
3.12319e+06
1.79872e+07
96138.8
214095
266538
287554
295806
299112
300494
301102
301385
301525
301597
301636
301658
301671
301678
301683
301686
301688
301689
301690
301691
301692
301692
301693
301694
301695
301697
301700
301704
301709
301718
301730
301749
301777
301822
301892
302008
302201
302536
303141
304279
306533
311242
321669
346212
407823
574733
1.08478e+06
3.10622e+06
1.79872e+07
47959.3
118635
157811
177037
186049
190247
192235
193204
193693
193950
194090
194168
194214
194242
194258
194269
194275
194280
194283
194285
194286
194287
194289
194290
194292
194295
194299
194304
194312
194324
194342
194369
194410
194473
194569
194722
194966
195369
196051
197242
199395
203438
211347
227495
262032
340010
530312
1.06585e+06
3.1032e+06
1.79872e+07
27165
71407
100080
116414
125193
129808
132232
133523
134225
134615
134839
134970
135048
135097
135127
135146
135158
135167
135172
135176
135179
135181
135183
135186
135189
135194
135201
135211
135226
135249
135282
135332
135408
135522
135698
135971
136403
137100
138249
140189
143558
149579
160688
181895
224034
312400
514675
1.06036e+06
3.10249e+06
1.79872e+07
16927.8
46036.1
67006.9
80381.1
88386.4
93029
95690.9
97219.7
98106.6
98628.7
98941.5
99132.2
99250.5
99325.1
99372.7
99403.5
99423.6
99437
99446
99452.2
99456.9
99460.8
99464.7
99469
99474.7
99482.6
99494
99510.8
99535.6
99572.5
99627.3
99709.1
99831.6
100016
100296
100726
101395
102449
104141
106911
111542
119466
133379
158555
205927
300438
508669
1.05852e+06
3.10227e+06
1.79872e+07
11369.4
31449.1
46966.8
57755.6
64789.9
69211.1
71939.2
73612.1
74640.1
75276.4
75674.2
75925.8
76086.8
76190.8
76258.7
76303.4
76333.1
76353
76366.5
76376.1
76383.2
76389.1
76394.9
76401.5
76410.1
76422
76439.2
76464.6
76502
76557.3
76639.3
76760.9
76941.6
77211.3
77616.1
78228.5
79163.5
80608
82869.6
86464.8
92278.3
101862
118026
146092
196876
294924
506149
1.05782e+06
3.10219e+06
1.79872e+07
8128.66
22579.7
34278.6
42976.2
49044.4
53117.9
55791.1
57525.3
58646.2
59371.5
59843.1
60151.5
60354.6
60489.1
60578.7
60638.8
60679.2
60706.6
60725.5
60738.9
60748.9
60757.3
60765.5
60774.9
60787
60803.8
60828
60863.6
60915.9
60993
61106.6
61274
61520.9
61885.7
62426.9
63233.9
64445.7
66281.3
69090.6
73443
80282.3
91215.6
109079
139154
192102
292186
504971
1.05751e+06
3.10216e+06
1.79872e+07
6144.95
16966.7
25978.6
33038.4
38241.9
41926.5
44472.2
46205.1
47375.3
48163.1
48693.4
49051
49292.7
49456.5
49567.8
49643.6
49695.4
49730.9
49755.6
49773.2
49786.6
49797.8
49808.8
49821.3
49837.4
49859.8
49891.9
49938.9
50007.8
50108.8
50256.9
50473.6
50790.5
51254.3
51934.4
52934.9
54414
56614.7
59915.7
64917.4
72591.6
84559.5
103643
135060
189354
290622
504277
1.05731e+06
3.10213e+06
1.79872e+07
4890.78
13310
20448
26223.3
30687.3
33991.4
36374.9
38064.8
39250.1
40076
40649.4
41046.7
41321.8
41512.1
41643.7
41734.7
41797.7
41841.5
41872.2
41894.3
41911.2
41925.5
41939.4
41955.3
41975.8
42004.2
42044.8
42103.9
42190.2
42316.1
42499.5
42766.1
43152.8
43713.4
44526.5
45707.8
47429.3
49950.2
53666.1
59191.5
67504.8
80217.4
100120
132375
187448
289373
503540
1.05696e+06
3.10205e+06
1.79872e+07
4081.47
10879.2
16693.1
21485.1
25334.1
28294.8
30507.2
32130.7
33306.8
34151
34753.1
35180.4
35482.6
35695.7
35845.4
35950.4
36024
36075.6
36112.2
36138.8
36159.3
36176.7
36193.8
36213.3
36238.3
36272.8
36322.1
36393.4
36497.1
36647.5
36865.4
37179.8
37632.4
38282.8
39216.4
40557.2
42486.4
45271.9
49316.6
55237.5
64005.2
77201.4
97576.6
130235
185587
287651
501924
1.05568e+06
3.1015e+06
1.79872e+07
3552.88
9240.62
14114.5
18179.7
21516.1
24176.2
26224.1
27771
28922.5
29770.4
30389.3
30837.8
31161
31392.5
31557.7
31674.9
31758
31816.9
31859
31889.9
31913.9
31934.4
31954.6
31977.6
32007.2
32047.7
32105.4
32188.6
32308.8
32482.5
32732.4
33090.7
33602.6
34332.1
35369.6
36844
38941.2
41932
46218.6
52412.8
61472.3
74914.6
95436.7
128046
183016
284220
497138
1.04964e+06
3.09629e+06
1.79872e+07
3205.45
8125.09
12327.9
15858.8
18783.6
21185.6
23085.8
24555.3
25674.4
26516.1
27142.7
27605
27943.5
28189.5
28367.2
28494.8
28586.1
28651.4
28698.6
28733.4
28760.7
28784.1
28807.3
28833.7
28867.6
28913.9
28979.5
29073.7
29209.1
29403.8
29682.3
30079.1
30642.3
31438.5
32561.4
34142.3
36367.8
39506.3
43951.6
50303.2
59539.5
73006.2
93361.2
125404
178985
277045
482977
1.02054e+06
3.04091e+06
1.79872e+07
2976.8
7360.78
11084
14224.5
16836
19012.2
20784.1
22181.1
23265.1
24094.9
24722.9
25193.3
25542.4
25799.2
25986.8
26122.8
26221
26291.8
26343.3
26381.7
26411.9
26438.1
26464
26493.7
26531.5
26583.1
26655.9
26759.9
26908.9
27121.9
27425
27854.4
28460
29310.3
30500.4
32162.1
34480.2
37716.1
42244.3
48605.5
55108.5
67940.8
86029.5
113958
159414
239379
397258
770900
2.00892e+06
1.20424e+07
2826.7
6834.81
10214.3
13067.7
15450.1
17439
19097.2
20430
21479.9
22295.3
22920.7
23395
23751
24015.6
24210.7
24353.3
24457.1
24532.5
24587.8
24629.2
24662
24690.6
24719.1
24751.7
24793.1
24849.4
24928.6
25041.1
25201.7
25430.1
25753.7
26209.7
26849.1
27741.5
28982.3
30702.8
33085.1
36385.1
40968.2
47373.1
53894
66490.1
84253.4
111446
155350
232062
383272
747062
2.01434e+06
1.24057e+07
2728.72
6471.94
9604.67
12248.3
14462.7
16308.5
17863.6
19141.9
20160.8
20961.3
21582
22057.5
22417.7
22687.8
22888.4
23036.2
23144.4
23223.5
23281.8
23325.8
23360.9
23391.6
23422.3
23457.4
23502
23562.4
23647
23766.8
23937
24178.1
24518.1
24995.1
25660.5
26584.3
27861.7
29622.6
32046.3
35383
39989.5
46389
52905
65257.8
82702.2
109254
151941
226505
373662
730699
1.98891e+06
1.23852e+07
2665.27
6221.38
9177.01
11667.6
13757.3
15500.4
16968.5
18197.9
19190.3
19977
20592.2
21067.3
21429.9
21703.6
21908.2
22059.8
22171.4
22253.5
22314.2
22360.4
22397.4
22429.9
22462.6
22499.9
22547.1
22611
22700.1
22825.9
23003.8
23255
23607.8
24100.6
24785.2
25731.5
27033.8
28820.5
31267.8
34620.4
39226.5
45595.4
52084.6
64208.1
81352.4
107327
148812
233738
388351
766464
2.12101e+06
1.69429e+07
2624.58
6048.57
8877.38
11257
13255
14924.2
16324.6
17509.5
18480.6
19255.4
19865.3
20339.2
20703
20979.1
21186.5
21340.9
21455.2
21539.5
21602.3
21650.1
21688.7
21722.8
21757
21796.1
21845.6
21912.4
22005.1
22135.6
22319.6
22578.5
22940.9
23445.3
24143.5
25104.9
26423
28224.3
30681.7
34035.1
38624.6
44947.1
51393.3
63303.4
80172.2
105660
146281
229296
379639
745929
2.07429e+06
1.69163e+07
2598.72
5929.85
8668.4
10968.2
12899.5
14514.8
15866.8
17014
17966.8
18731.8
19337
19809.4
20173.7
20451.4
20660.8
20817.3
20933.4
21019.5
21083.8
21133
21172.8
21208.1
21243.7
21284.3
21335.6
21404.6
21500.2
21634.3
21823
22087.6
22456.9
22969.5
23676.8
24647.8
25974.7
27782.3
30240.4
33583.9
38145.7
44411.1
50801.7
62508.1
79113.8
104171
144093
225763
374098
737907
2.06705e+06
1.69157e+07
2582.43
5849.03
8524.19
10767.4
12651
14227.5
15545.5
16662.7
17599.8
18357.6
18959.2
19430.4
19794.9
20073.5
20284.3
20442.2
20559.8
20647.1
20712.6
20762.9
20803.6
20839.9
20876.5
20918.2
20971
21041.7
21139.5
21276.4
21468.4
21737.1
22111.3
22629.3
23342.3
24318.7
25649.6
27458
29910.6
33237.9
37765.4
43966.8
50293.4
61793.1
78120.8
102719
141882
221924
367431
724013
2.02472e+06
1.67948e+07
2572.23
5795.1
8426.95
10631.2
12481.8
14031.2
15326.4
16420.6
17344.7
18097.8
18696.9
19167.1
19531.7
19811
20022.6
20181.6
20300.1
20388.4
20454.7
20505.8
20547.3
20584.3
20621.6
20664.2
20718
20790
20889.4
21028.2
21222.6
21494.1
21871.5
22392.9
23109.3
24088.3
25420.2
27226.2
29670.4
32978.9
37470.1
43606.2
49868.9
61148.6
77165.6
101209
139349
216803
357107
696968
2.07579e+06
1.19265e+07
2565.97
5760.81
8364.72
10543.8
12372.8
13904.6
15185.1
16263.4
17177.5
17927.6
18525.2
18994.9
19359.5
19639.1
19851.4
20011
20130.2
20219.1
20286
20337.5
20379.6
20417.1
20454.9
20498.2
20552.7
20625.5
20726
20866.1
21062
21335.3
21714.6
22238.1
22956.3
23936.3
25267.7
27070.1
29505.7
32796.8
37255.5
43333.2
49545.4
60597.3
76286.4
99685
136480
210072
341642
659128
1.98865e+06
1.18237e+07
2562.39
5741.46
8329.55
10494.2
12311
13832.8
15104.9
16173.5
17081.2
17829.7
18426.6
18896
19260.6
19540.6
19753.2
19913.1
20032.7
20122
20189.2
20241.1
20283.4
20321.2
20359.4
20403
20457.9
20531.3
20632.3
20773.2
20970
21244.3
21624.7
22149.2
22868.1
23848.4
25179
26978.5
29407.7
32686.2
37121.9
43157.9
49347.9
60190.8
75595.8
98386.8
133764
202826
320798
584571
1.29233e+06
5.51305e+06
2561.15
5735.21
8318.23
10478.3
12291.1
13809.7
15079.3
16144.4
17049.3
17797.5
18394.5
18863.8
19228.5
19508.5
19721.2
19881.3
20001
20090.4
20157.7
20209.7
20252.1
20290
20328.3
20372
20427.1
20500.6
20601.9
20743
20940.1
21214.7
21595.4
22120.2
22839.4
23819.7
25149.8
26948.3
29375
32649
37076.3
43096.9
49307.4
59996.6
75252.3
97706.3
132235
198839
307408
524780
967303
1.97653e+06
2562.28
5741.51
8329.71
10494.4
12311.2
13833
15105.1
16173.7
17081.4
17829.9
18426.7
18896.2
19260.8
19540.7
19753.3
19913.2
20032.8
20122.1
20189.3
20241.2
20283.5
20321.3
20359.5
20403.1
20458
20531.4
20632.4
20773.3
20970.1
21244.4
21624.8
22149.3
22868.2
23848.5
25179
26978.5
29407.6
32686.2
37121.9
43157.8
49430.5
60062.5
75369.9
97942.1
132773
201334
315923
563618
1.23047e+06
4.58381e+06
2565.89
5760.98
8365.06
10544.2
12373.2
13905
15185.4
16263.7
17177.8
17928
18525.5
18995.1
19359.7
19639.3
19851.6
20011.2
20130.4
20219.3
20286.1
20337.7
20379.7
20417.2
20455.1
20498.4
20552.9
20625.7
20726.2
20866.3
21062.2
21335.5
21714.8
22238.3
22956.4
23936.4
25267.7
27070.1
29505.6
32796.7
37255.4
43333.1
49695.5
60372.3
75909
98987.2
135052
208219
336742
644159
1.64009e+06
1.17254e+07
2572.43
5795.56
8427.55
10631.9
12482.4
14031.8
15327
16421.2
17345.2
18098.3
18697.3
19167.5
19532
19811.2
20022.9
20181.8
20300.3
20388.6
20454.9
20506
20547.5
20584.5
20621.8
20664.5
20718.3
20790.3
20889.7
21028.5
21222.9
21494.4
21871.7
22393.1
23109.5
24088.4
25420.3
27226.1
29670.2
32978.7
37469.8
43605.9
50072.9
60858.3
76710.7
100438
137940
215270
353831
689664
1.75021e+06
1.19207e+07
2583.14
5850.01
8525.24
10768.4
12652
14228.3
15546.3
16663.4
17600.5
18358.2
18959.7
19430.8
19795.2
20073.8
20284.6
20442.5
20560
20647.4
20712.9
20763.1
20803.9
20840.2
20876.8
20918.6
20971.3
21042.1
21139.9
21276.7
21468.8
21737.5
22111.6
22629.5
23342.5
24318.8
25649.6
27457.8
29910.4
33237.7
37765.1
43966.5
50540.4
61461.2
77637.8
101973
140666
220791
365217
717924
1.99358e+06
1.63318e+07
2600.32
5931.74
8670.19
10969.8
12900.9
14516
15867.8
17015
17967.7
18732.5
19337.6
19810
20174.2
20451.8
20661.1
20817.6
20933.8
21019.8
21084.1
21133.4
21173.2
21208.5
21244.1
21284.7
21336
21405
21500.6
21634.8
21823.4
22088
22457.3
22969.8
23677
24647.8
25974.6
27782
30240
33583.6
38145.4
44410.9
51089.1
62141.6
78611.8
103449
143013
224881
372671
735139
2.05916e+06
1.69131e+07
2627.48
6051.8
8880.26
11259.4
13257
14925.8
16326
17510.8
18481.7
19256.4
19866.1
20339.9
20703.5
20979.6
21187
21341.4
21455.6
21539.9
21602.7
21650.6
21689.1
21723.3
21757.5
21796.6
21846.2
21912.9
22005.7
22136.1
22320.2
22579
22941.3
23445.6
24143.6
25104.9
26422.8
28223.9
30681.2
34034.6
38624.2
44946.9
51727.3
62894
79631.3
104902
145166
228373
378119
743354
2.07065e+06
1.69158e+07
2669.92
6226.42
9181.37
11671.2
13760.1
15502.5
16970.3
18199.5
19191.6
19978.1
20593.1
21068.1
21430.5
21704.2
21908.7
22060.3
22171.9
22254
22314.8
22360.9
22397.9
22430.5
22463.2
22500.5
22547.8
22611.7
22700.8
22826.5
23004.4
23255.5
23608.2
24100.9
24785.3
25731.3
27033.4
28820
31267.1
34619.7
39226
45595.2
52478.8
63739.8
80743.4
106463
147483
232497
385682
758824
2.09668e+06
1.69198e+07
2735.51
6479.23
9610.83
12253.1
14466.4
16311.3
17865.8
19143.7
20162.4
20962.6
21583.1
22058.4
22418.5
22688.5
22889
23036.8
23145
23224.1
23282.4
23326.4
23361.5
23392.3
23423
23458.1
23502.8
23563.2
23647.8
23767.6
23937.7
24178.7
24518.6
24995.3
25660.5
26584
27861.2
29621.9
32045.4
35382.1
39988.7
46388.7
53377.5
64712.4
82004.2
108259
150360
223989
368311
716144
1.93334e+06
1.21639e+07
2835.95
6844.67
10222.4
13073.9
15454.6
17442.3
19099.7
20432.1
21481.7
22296.8
22921.9
23396.1
23751.9
24016.5
24211.4
24354.1
24457.8
24533.2
24588.4
24629.9
24662.7
24691.4
24719.9
24752.5
24793.9
24850.3
24929.4
25042
25202.4
25430.8
25754.2
26210
26849.1
27741.2
28981.7
30701.9
33084
36384
40967.5
47372.8
54470.1
65848.7
83450.9
110313
153586
229166
378446
739985
2.00777e+06
1.24058e+07
2988.67
7373.34
11094.2
14232
16841.2
19015.8
20786.9
22183.4
23267
24096.5
24724.3
25194.4
25543.4
25800.1
25987.6
26123.5
26221.7
26292.5
26344.1
26382.5
26412.7
26438.9
26464.9
26494.5
26532.4
26584
26656.8
26760.8
26909.7
27122.5
27425.4
27854.7
28459.9
29309.9
30499.6
32161.1
34479.1
37715.1
42243.7
48605.3
55843.3
67186.9
85113.8
112663
157287
235410
389173
755761
2.01699e+06
1.23779e+07
3219.87
8140.15
12339.8
15867.2
18789
21189.4
23088.8
24557.7
25676.4
26517.8
27144.1
27606.2
27944.5
28190.4
28368
28495.6
28586.9
28652.2
28699.3
28734.2
28761.5
28784.9
28808.1
28834.6
28868.5
28914.8
28980.4
29074.5
29209.9
29404.4
29682.7
30079.3
30642.2
31438.1
32560.6
34141.2
36366.6
39505.2
43951
50303.1
59539.4
73006.1
93361.2
125404
178985
277045
482977
1.02054e+06
3.04091e+06
1.79872e+07
3569.53
9257.62
14127.4
18188.2
21521.4
24180
26227.1
27773.4
28924.5
29772
30390.6
30839
31162
31393.4
31558.5
31675.7
31758.8
31817.6
31859.8
31890.7
31914.7
31935.2
31955.4
31978.4
32008
32048.5
32106.2
32189.3
32309.5
32483
32732.7
33090.8
33602.5
34331.6
35368.7
36842.9
38940
41930.8
46217.7
52412.4
61472
74914.5
95436.8
128046
183016
284220
497138
1.04964e+06
3.09629e+06
1.79872e+07
4099.69
10897.1
16706
21492.8
25339.1
28298.4
30509.9
32132.9
33308.6
34152.5
34754.3
35181.5
35483.6
35696.5
35846.2
35951.1
36024.7
36076.3
36112.9
36139.5
36160
36177.4
36194.5
36214
36239
36273.5
36322.8
36394
36497.6
36648
36865.7
37179.9
37632.2
38282.3
39215.6
40556.1
42485.1
45270.7
49315.5
55236.7
64004.6
77201.1
97576.5
130235
185587
287651
501924
1.05568e+06
3.1015e+06
1.79872e+07
4909.63
13327.6
20459.6
26229.8
30691.5
33994.4
36377.1
38066.6
39251.6
40077.2
40650.4
41047.6
41322.5
41512.8
41644.4
41735.3
41798.3
41842
41872.7
41894.8
41911.7
41926
41940
41955.9
41976.4
42004.7
42045.3
42104.4
42190.6
42316.4
42499.7
42766.1
43152.6
43713
44525.8
45706.8
47428.1
49948.9
53664.8
59190.4
67504
80216.9
100120
132375
187448
289373
503540
1.05696e+06
3.10205e+06
1.79872e+07
6163.25
16982.5
25987.7
33043.3
38245
41928.6
44473.8
46206.3
47376.3
48163.9
48694.1
49051.6
49293.2
49457
49568.3
49644
49695.8
49731.3
49756
49773.6
49787
49798.2
49809.2
49821.6
49837.8
49860.1
49892.3
49939.2
50008
50109
50257
50473.5
50790.3
51253.9
51933.8
52934.1
54413
56613.5
59914.5
64916.2
72590.6
84558.9
103642
135060
189354
290622
504277
1.05731e+06
3.10213e+06
1.79872e+07
8145.14
22592.1
34284.1
42979.2
49046.2
53119.1
55792
57526
58646.7
59372
59843.5
60151.9
60354.9
60489.4
60579
60639
60679.4
60706.9
60725.7
60739.1
60749.1
60757.5
60765.7
60775.1
60787.1
60803.9
60828.2
60863.7
60915.9
60993
61106.6
61273.9
61520.7
61885.4
62426.5
63233.3
64445
66280.4
69089.6
73441.9
80281.4
91214.9
109079
139154
192102
292186
504971
1.05751e+06
3.10216e+06
1.79872e+07
11383
31457.3
46969.9
57756.9
64790.4
69211.4
71939.3
73612.3
74640.2
75276.5
75674.3
75925.9
76086.9
76190.9
76258.8
76303.5
76333.2
76353.1
76366.6
76376.1
76383.3
76389.2
76395
76401.5
76410.1
76422
76439.2
76464.5
76501.9
76557.2
76639.2
76760.7
76941.4
77211.1
77615.9
78228.1
79163
80607.4
82868.9
86464
92277.5
101862
118026
146092
196876
294925
506149
1.05782e+06
3.10219e+06
1.79872e+07
16937.4
46038.4
67006.9
80380.7
88385.9
93028.6
95690.6
97219.5
98106.4
98628.6
98941.4
99132.1
99250.5
99325
99372.6
99403.4
99423.6
99436.9
99445.9
99452.2
99456.9
99460.8
99464.6
99468.9
99474.6
99482.5
99493.9
99510.7
99535.5
99572.4
99627.2
99709
99831.5
100016
100296
100726
101395
102449
104141
106911
111541
119465
133379
158554
205926
300438
508669
1.05852e+06
3.10227e+06
1.79872e+07
27169.7
71398.2
100077
116412
125192
129807
132232
133523
134224
134615
134838
134970
135048
135097
135127
135146
135158
135166
135172
135176
135179
135181
135183
135186
135189
135194
135201
135211
135226
135249
135282
135332
135407
135522
135698
135971
136403
137100
138249
140189
143557
149579
160688
181895
224034
312400
514675
1.06036e+06
3.10249e+06
1.79872e+07
47962.4
118632
157808
177035
186048
190246
192234
193203
193693
193950
194089
194168
194214
194241
194258
194269
194275
194280
194282
194285
194286
194287
194289
194290
194292
194295
194298
194304
194312
194324
194342
194369
194410
194473
194569
194722
194966
195369
196051
197242
199395
203438
211347
227495
262031
340010
530312
1.06585e+06
3.1032e+06
1.79872e+07
96140.5
214094
266537
287553
295805
299111
300493
301101
301385
301524
301596
301636
301658
301670
301678
301683
301686
301688
301689
301690
301691
301692
301692
301693
301694
301695
301697
301700
301704
301709
301717
301730
301749
301777
301822
301893
302008
302201
302536
303141
304279
306533
311242
321669
346212
407823
574733
1.08478e+06
3.10622e+06
1.79872e+07
228632
431019
496282
516087
522239
524274
525004
525291
525414
525470
525498
525513
525521
525525
525528
525530
525531
525531
525532
525532
525533
525533
525533
525534
525534
525535
525535
525537
525538
525540
525543
525548
525555
525565
525581
525607
525648
525718
525843
526073
526524
527462
529563
534662
548177
587435
712735
1.16002e+06
3.12319e+06
1.79872e+07
679439
1.01714e+06
1.08474e+06
1.09848e+06
1.10156e+06
1.10235e+06
1.10259e+06
1.10267e+06
1.1027e+06
1.10272e+06
1.10272e+06
1.10273e+06
1.10273e+06
1.10273e+06
1.10273e+06
1.10273e+06
1.10273e+06
1.10273e+06
1.10273e+06
1.10273e+06
1.10273e+06
1.10273e+06
1.10273e+06
1.10273e+06
1.10273e+06
1.10273e+06
1.10273e+06
1.10273e+06
1.10273e+06
1.10274e+06
1.10274e+06
1.10274e+06
1.10274e+06
1.10274e+06
1.10275e+06
1.10275e+06
1.10276e+06
1.10278e+06
1.10281e+06
1.10287e+06
1.10298e+06
1.10322e+06
1.10379e+06
1.10531e+06
1.1099e+06
1.12603e+06
1.19191e+06
1.50335e+06
3.24976e+06
1.79872e+07
2.70015e+06
3.18574e+06
3.23008e+06
3.23475e+06
3.23538e+06
3.23549e+06
3.23552e+06
3.23553e+06
3.23554e+06
3.23554e+06
3.23554e+06
3.23554e+06
3.23554e+06
3.23554e+06
3.23554e+06
3.23554e+06
3.23554e+06
3.23554e+06
3.23554e+06
3.23554e+06
3.23554e+06
3.23554e+06
3.23554e+06
3.23554e+06
3.23554e+06
3.23554e+06
3.23554e+06
3.23554e+06
3.23555e+06
3.23555e+06
3.23555e+06
3.23555e+06
3.23555e+06
3.23555e+06
3.23555e+06
3.23555e+06
3.23556e+06
3.23556e+06
3.23556e+06
3.23557e+06
3.23558e+06
3.23561e+06
3.23568e+06
3.23585e+06
3.23644e+06
3.23892e+06
3.25306e+06
3.36211e+06
4.43127e+06
1.79872e+07
1.87595e+07
1.87595e+07
1.87595e+07
1.87595e+07
1.87595e+07
1.87595e+07
1.87595e+07
1.87595e+07
1.87595e+07
1.87595e+07
1.87595e+07
1.87595e+07
1.87595e+07
1.87595e+07
1.87595e+07
1.87595e+07
1.87595e+07
1.87595e+07
1.87595e+07
1.87595e+07
1.87595e+07
1.87595e+07
1.87595e+07
1.87595e+07
1.87595e+07
1.87595e+07
1.87595e+07
1.87595e+07
1.87595e+07
1.87595e+07
1.87595e+07
1.87595e+07
1.87595e+07
1.87595e+07
1.87595e+07
1.87595e+07
1.87595e+07
1.87595e+07
1.87595e+07
1.87595e+07
1.87595e+07
1.87595e+07
1.87595e+07
1.87595e+07
1.87595e+07
1.87595e+07
1.87595e+07
1.87595e+07
1.87595e+07
1.87595e+07
6.64472e+07
6.7666e+07
6.76452e+07
6.76788e+07
6.75644e+07
6.73749e+07
6.73015e+07
6.75032e+07
6.76162e+07
6.76382e+07
6.76443e+07
6.76416e+07
6.766e+07
6.74116e+07
6.76373e+07
6.7668e+07
6.76666e+07
6.76661e+07
6.76659e+07
6.7664e+07
3.10493e+06
3.31396e+06
3.30536e+06
3.28034e+06
3.2585e+06
3.27709e+06
3.25801e+06
3.28354e+06
3.27924e+06
3.3174e+06
3.32332e+06
3.30376e+06
3.29003e+06
3.28056e+06
3.30185e+06
3.32454e+06
3.32459e+06
3.32451e+06
3.32232e+06
3.25287e+06
1.15726e+07
1.19496e+07
1.18633e+07
1.1876e+07
1.15671e+07
1.19893e+07
1.17965e+07
1.19448e+07
1.19448e+07
1.19246e+07
1.19261e+07
1.18931e+07
1.18948e+07
1.18575e+07
1.18311e+07
1.19391e+07
1.19503e+07
1.19514e+07
1.19513e+07
1.19096e+07
1.87595e+07
1.87595e+07
1.87595e+07
1.87595e+07
1.87595e+07
1.87595e+07
1.87595e+07
1.87595e+07
1.87595e+07
1.87595e+07
1.87595e+07
1.87595e+07
1.87595e+07
1.87595e+07
1.87595e+07
1.87595e+07
1.87595e+07
1.87595e+07
1.87595e+07
1.87595e+07
1.87595e+07
1.87595e+07
1.87595e+07
1.87595e+07
1.87595e+07
1.87595e+07
1.87595e+07
1.87595e+07
1.87595e+07
1.87595e+07
1.87595e+07
1.87595e+07
1.87595e+07
1.87595e+07
1.87595e+07
1.87595e+07
1.87595e+07
1.87595e+07
1.87595e+07
1.87595e+07
1.87595e+07
1.87595e+07
1.87595e+07
1.87595e+07
1.87595e+07
1.87595e+07
1.87595e+07
1.87595e+07
1.87595e+07
1.87595e+07
1.87595e+07
1.87595e+07
1.87595e+07
1.87595e+07
1.87595e+07
1.87595e+07
1.87595e+07
1.87595e+07
1.87595e+07
1.87595e+07
1.87595e+07
1.87595e+07
1.87595e+07
1.87595e+07
1.87595e+07
1.87595e+07
1.87595e+07
1.87595e+07
1.87595e+07
1.87595e+07
1.87595e+07
1.87595e+07
1.87595e+07
1.87595e+07
1.87595e+07
1.87595e+07
1.87595e+07
1.87595e+07
1.87595e+07
1.87595e+07
1.87595e+07
1.87595e+07
1.87595e+07
1.87595e+07
1.87595e+07
1.87595e+07
1.87595e+07
1.87595e+07
1.87595e+07
1.87595e+07
1.87595e+07
1.87595e+07
1.87595e+07
1.87595e+07
1.87595e+07
1.87595e+07
1.87595e+07
1.87595e+07
1.87595e+07
1.87595e+07
1.79872e+07
4.43127e+06
3.36208e+06
3.25302e+06
3.23888e+06
3.2364e+06
3.23582e+06
3.23564e+06
3.23558e+06
3.23556e+06
3.23555e+06
3.23554e+06
3.23554e+06
3.23554e+06
3.23554e+06
3.23554e+06
3.23554e+06
3.23554e+06
3.23554e+06
3.23554e+06
3.23554e+06
3.23554e+06
3.23554e+06
3.23554e+06
3.23554e+06
3.23554e+06
3.23554e+06
3.23554e+06
3.23554e+06
3.23554e+06
3.23554e+06
3.23554e+06
3.23554e+06
3.23554e+06
3.23554e+06
3.23554e+06
3.23554e+06
3.23554e+06
3.23554e+06
3.23554e+06
3.23554e+06
3.23554e+06
3.23554e+06
3.23554e+06
3.23554e+06
3.23554e+06
3.23554e+06
3.23554e+06
3.23554e+06
3.23554e+06
3.23554e+06
3.23554e+06
3.23554e+06
3.23554e+06
3.23554e+06
3.23554e+06
3.23554e+06
3.23554e+06
3.23554e+06
3.23554e+06
3.23554e+06
3.23554e+06
3.23554e+06
3.23554e+06
3.23554e+06
3.23554e+06
3.23554e+06
3.23554e+06
3.23554e+06
3.23554e+06
3.23554e+06
3.23554e+06
3.23554e+06
3.23554e+06
3.23554e+06
3.23554e+06
3.23554e+06
3.23554e+06
3.23554e+06
3.23554e+06
3.23554e+06
3.23554e+06
3.23554e+06
3.23554e+06
3.23554e+06
3.23554e+06
3.23554e+06
3.23554e+06
3.23554e+06
3.23554e+06
3.23554e+06
3.23554e+06
3.23554e+06
3.23554e+06
3.23554e+06
3.23554e+06
3.23554e+06
3.23554e+06
3.23554e+06
3.23554e+06
1.79872e+07
3.24979e+06
1.50335e+06
1.1919e+06
1.12601e+06
1.10988e+06
1.10528e+06
1.10377e+06
1.1032e+06
1.10296e+06
1.10285e+06
1.10279e+06
1.10277e+06
1.10275e+06
1.10274e+06
1.10274e+06
1.10273e+06
1.10273e+06
1.10273e+06
1.10273e+06
1.10273e+06
1.10273e+06
1.10273e+06
1.10273e+06
1.10273e+06
1.10273e+06
1.10273e+06
1.10273e+06
1.10273e+06
1.10273e+06
1.10273e+06
1.10273e+06
1.10273e+06
1.10273e+06
1.10273e+06
1.10273e+06
1.10273e+06
1.10273e+06
1.10273e+06
1.10273e+06
1.10273e+06
1.10273e+06
1.10273e+06
1.10273e+06
1.10273e+06
1.10273e+06
1.10273e+06
1.10273e+06
1.10273e+06
1.10273e+06
1.10273e+06
1.10273e+06
1.10273e+06
1.10273e+06
1.10273e+06
1.10273e+06
1.10273e+06
1.10273e+06
1.10273e+06
1.10273e+06
1.10273e+06
1.10273e+06
1.10273e+06
1.10273e+06
1.10273e+06
1.10273e+06
1.10273e+06
1.10273e+06
1.10273e+06
1.10273e+06
1.10273e+06
1.10273e+06
1.10273e+06
1.10273e+06
1.10273e+06
1.10273e+06
1.10273e+06
1.10273e+06
1.10273e+06
1.10273e+06
1.10273e+06
1.10273e+06
1.10273e+06
1.10273e+06
1.10273e+06
1.10273e+06
1.10273e+06
1.10273e+06
1.10273e+06
1.10273e+06
1.10273e+06
1.10273e+06
1.10273e+06
1.10273e+06
1.10273e+06
1.10273e+06
1.10273e+06
1.10273e+06
1.10273e+06
1.10273e+06
1.79872e+07
3.12323e+06
1.16003e+06
712735
587426
548163
534646
529547
527446
526509
526059
525830
525707
525638
525598
525574
525559
525550
525544
525540
525538
525536
525535
525534
525534
525533
525533
525533
525533
525533
525533
525533
525532
525532
525532
525532
525532
525532
525532
525532
525532
525532
525532
525532
525532
525532
525532
525532
525532
525532
525532
525532
525532
525532
525532
525532
525532
525532
525532
525532
525532
525532
525532
525532
525532
525532
525532
525532
525532
525532
525532
525532
525532
525532
525532
525532
525532
525532
525532
525532
525532
525532
525532
525532
525532
525532
525532
525532
525532
525532
525532
525532
525532
525532
525532
525532
525532
525532
525532
525532
1.79872e+07
3.10627e+06
1.0848e+06
574744
407824
346207
321660
311230
306521
304268
303130
302528
302194
302003
301890
301821
301778
301750
301733
301721
301713
301708
301704
301702
301700
301698
301697
301696
301695
301695
301694
301694
301693
301693
301693
301693
301693
301693
301693
301692
301692
301692
301692
301692
301692
301692
301692
301692
301691
301691
301691
301691
301691
301691
301691
301691
301691
301690
301690
301690
301690
301690
301690
301690
301690
301690
301690
301690
301690
301690
301690
301690
301690
301690
301690
301690
301690
301690
301690
301690
301690
301690
301690
301690
301690
301690
301690
301690
301690
301691
301691
301691
301691
301691
301691
301691
301691
301691
301691
301691
1.79872e+07
3.10325e+06
1.06588e+06
530330
340020
262035
227493
211342
203433
199391
197239
196051
195372
194972
194730
194581
194486
194426
194386
194360
194343
194330
194322
194315
194310
194306
194303
194301
194299
194297
194295
194294
194293
194292
194292
194291
194291
194291
194290
194290
194290
194290
194290
194290
194289
194289
194289
194288
194288
194288
194288
194287
194287
194287
194287
194287
194287
194286
194286
194286
194286
194286
194286
194286
194286
194286
194286
194286
194286
194286
194286
194286
194286
194286
194286
194286
194286
194286
194286
194286
194286
194286
194286
194286
194286
194286
194286
194286
194286
194287
194287
194287
194287
194287
194287
194287
194287
194288
194288
194288
1.79872e+07
3.10253e+06
1.06039e+06
514698
312418
224045
181902
160693
149584
143564
140199
138263
137120
136429
136001
135733
135561
135449
135376
135327
135293
135269
135252
135239
135229
135221
135215
135209
135204
135201
135197
135195
135193
135191
135190
135189
135188
135187
135187
135187
135186
135186
135185
135185
135185
135184
135184
135183
135183
135182
135182
135181
135181
135181
135181
135180
135180
135180
135180
135180
135180
135180
135180
135180
135180
135180
135180
135180
135180
135180
135180
135180
135180
135180
135180
135180
135180
135180
135180
135180
135180
135180
135180
135180
135180
135180
135180
135180
135180
135180
135180
135180
135181
135181
135181
135181
135181
135182
135182
135182
1.79872e+07
3.10232e+06
1.05856e+06
508696
300461
205946
158571
133395
119484
111565
106941
104180
102497
101453
100793
100371
100098
99917.5
99797.6
99716.3
99660
99619.9
99590.3
99567.7
99549.7
99535
99522.7
99512.3
99503.6
99496.2
99490.2
99485.2
99481.2
99478.1
99475.6
99473.7
99472.3
99471.2
99470.3
99469.6
99468.9
99468.4
99467.8
99467.2
99466.5
99465.8
99465
99464.2
99463.4
99462.7
99462.1
99461.7
99461.3
99461
99460.8
99460.6
99460.5
99460.4
99460.4
99460.3
99460.3
99460.3
99460.3
99460.3
99460.4
99460.4
99460.4
99460.4
99460.4
99460.4
99460.4
99460.4
99460.4
99460.4
99460.4
99460.4
99460.4
99460.4
99460.4
99460.4
99460.4
99460.4
99460.4
99460.4
99460.4
99460.4
99460.4
99460.5
99460.5
99460.5
99460.6
99460.7
99460.8
99461
99461.2
99461.4
99461.7
99462
99462.3
99462.4
1.79872e+07
3.10224e+06
1.05786e+06
506180
294953