/*--------------------------------*- C++ -*----------------------------------*\
| =========                 |                                                 |
| \\      /  F ield         | foam-extend: Open Source CFD                    |
|  \\    /   O peration     | Version:     4.0                                |
|   \\  /    A nd           | Web:         http://www.foam-extend.org         |
|    \\/     M anipulation  |                                                 |
\*---------------------------------------------------------------------------*/
FoamFile
{
    version     2.0;
    format      ascii;
    class       surfaceScalarField;
    location    "0.0005";
    object      phi;
}
// * * * * * * * * * * * * * * * * * * * * * * * * * * * * * * * * * * * * * //

dimensions      [0 3 -1 0 0 0 0];

internalField   nonuniform List<scalar> 
57362
(
4.08191e-11
2.42369e-15
4.08118e-11
7.30809e-15
4.07995e-11
1.23041e-14
4.0782e-11
1.74877e-14
4.07591e-11
2.29378e-14
4.07304e-11
2.87369e-14
4.06954e-11
3.49723e-14
4.06536e-11
4.17375e-14
4.06045e-11
4.9133e-14
4.05472e-11
5.7268e-14
4.0481e-11
6.62616e-14
4.04047e-11
7.62438e-14
4.03173e-11
8.73576e-14
4.02176e-11
9.97598e-14
4.01039e-11
1.13623e-13
3.99748e-11
1.29137e-13
3.98283e-11
1.46509e-13
3.96623e-11
1.65968e-13
3.94745e-11
1.87762e-13
3.92623e-11
2.12163e-13
3.90228e-11
2.39464e-13
3.87528e-11
2.69979e-13
3.84487e-11
3.04049e-13
3.81067e-11
3.42027e-13
3.77224e-11
3.84291e-13
3.72911e-11
4.31223e-13
3.68078e-11
4.83227e-13
3.62671e-11
5.40672e-13
3.56631e-11
6.03972e-13
3.49896e-11
6.73407e-13
3.42402e-11
7.49388e-13
3.34081e-11
8.31971e-13
3.24866e-11
9.21554e-13
3.14687e-11
1.01776e-12
3.03478e-11
1.12097e-12
2.91175e-11
1.23011e-12
2.7772e-11
1.34555e-12
2.63065e-11
1.46527e-12
2.47172e-11
1.58946e-12
2.30018e-11
1.71518e-12
2.11598e-11
1.84214e-12
1.91928e-11
1.96678e-12
1.7105e-11
2.08797e-12
1.49029e-11
2.20203e-12
1.2596e-11
2.30705e-12
1.01964e-11
2.39963e-12
7.71892e-12
2.47759e-12
5.18075e-12
2.53827e-12
2.60096e-12
2.57993e-12
2.60109e-12
4.08197e-11
4.81141e-15
4.08125e-11
1.45078e-14
4.08004e-11
2.44257e-14
4.07831e-11
3.47164e-14
4.07605e-11
4.55365e-14
4.07322e-11
5.70497e-14
4.06978e-11
6.94298e-14
4.06566e-11
8.28624e-14
4.06082e-11
9.75474e-14
4.05518e-11
1.13702e-13
4.04865e-11
1.31563e-13
4.04113e-11
1.51389e-13
4.03252e-11
1.73464e-13
4.02268e-11
1.98101e-13
4.01148e-11
2.25643e-13
3.99875e-11
2.56469e-13
3.9843e-11
2.90993e-13
3.96792e-11
3.2967e-13
3.9494e-11
3.72997e-13
3.92846e-11
4.21515e-13
3.90482e-11
4.75811e-13
3.87817e-11
5.36517e-13
3.84814e-11
6.0431e-13
3.81435e-11
6.79906e-13
3.77637e-11
7.64064e-13
3.73373e-11
8.5755e-13
3.68593e-11
9.61186e-13
3.63242e-11
1.07571e-12
3.57262e-11
1.20199e-12
3.5059e-11
1.34057e-12
3.4316e-11
1.49233e-12
3.34905e-11
1.65737e-12
3.25756e-11
1.83656e-12
3.15641e-11
2.0291e-12
3.04493e-11
2.23594e-12
2.92245e-11
2.45474e-12
2.78838e-11
2.68655e-12
2.64219e-11
2.92699e-12
2.48347e-11
3.17695e-12
2.31198e-11
3.42997e-12
2.12763e-11
3.68607e-12
1.93056e-11
3.93748e-12
1.72115e-11
4.18241e-12
1.50006e-11
4.413e-12
1.26823e-11
4.62562e-12
1.02689e-11
4.81317e-12
7.77542e-12
4.97127e-12
5.21947e-12
5.09438e-12
2.62065e-12
5.17897e-12
5.22194e-12
4.08332e-11
7.1284e-15
4.08262e-11
2.14942e-14
4.08145e-11
3.61887e-14
4.07977e-11
5.1436e-14
4.07758e-11
6.74683e-14
4.07483e-11
8.45288e-14
4.07149e-11
1.02875e-13
4.0675e-11
1.22783e-13
4.0628e-11
1.44549e-13
4.05732e-11
1.68496e-13
4.05097e-11
1.94975e-13
4.04367e-11
2.24371e-13
4.03531e-11
2.57108e-13
4.02575e-11
2.93651e-13
4.01487e-11
3.3451e-13
4.00249e-11
3.80251e-13
3.98843e-11
4.31491e-13
3.97251e-11
4.8891e-13
3.95448e-11
5.53252e-13
3.9341e-11
6.25327e-13
3.91108e-11
7.06016e-13
3.8851e-11
7.96267e-13
3.85582e-11
8.97104e-13
3.82284e-11
1.0096e-12
3.78575e-11
1.13492e-12
3.74408e-11
1.27421e-12
3.69733e-11
1.42873e-12
3.64493e-11
1.59962e-12
3.5863e-11
1.78821e-12
3.52081e-11
1.99536e-12
3.4478e-11
2.22247e-12
3.36655e-11
2.46967e-12
3.27636e-11
2.73849e-12
3.17648e-11
3.02759e-12
3.0662e-11
3.33877e-12
2.94482e-11
3.66821e-12
2.81167e-11
4.0181e-12
2.66619e-11
4.3813e-12
2.50789e-11
4.75992e-12
2.33648e-11
5.14356e-12
2.1518e-11
5.53289e-12
1.95394e-11
5.91564e-12
1.74323e-11
6.28942e-12
1.52032e-11
6.64184e-12
1.28613e-11
6.96747e-12
1.04193e-11
7.25508e-12
7.89268e-12
7.49792e-12
5.29985e-12
7.6872e-12
2.66153e-12
7.81738e-12
7.88353e-12
4.08471e-11
9.34014e-15
4.08404e-11
2.81634e-14
4.08292e-11
4.74179e-14
4.08132e-11
6.73977e-14
4.07923e-11
8.84076e-14
4.07661e-11
1.10767e-13
4.07341e-11
1.34813e-13
4.0696e-11
1.6091e-13
4.06511e-11
1.89446e-13
4.05987e-11
2.20845e-13
4.05381e-11
2.55572e-13
4.04684e-11
2.94132e-13
4.03884e-11
3.37082e-13
4.0297e-11
3.85037e-13
4.01928e-11
4.38672e-13
4.00743e-11
4.98731e-13
3.99398e-11
5.66034e-13
3.97872e-11
6.41481e-13
3.96143e-11
7.2606e-13
3.94188e-11
8.20848e-13
3.91978e-11
9.2702e-13
3.89482e-11
1.04584e-12
3.86666e-11
1.17869e-12
3.83491e-11
1.327e-12
3.79917e-11
1.49234e-12
3.75896e-11
1.67628e-12
3.71377e-11
1.88055e-12
3.66306e-11
2.10669e-12
3.60623e-11
2.35657e-12
3.54262e-11
2.63137e-12
3.47156e-11
2.93315e-12
3.39231e-11
3.26204e-12
3.30413e-11
3.62049e-12
3.20623e-11
4.00643e-12
3.09783e-11
4.42313e-12
2.97817e-11
4.86462e-12
2.8465e-11
5.33548e-12
2.70217e-11
5.82431e-12
2.54459e-11
6.33659e-12
2.37339e-11
6.85546e-12
2.18827e-11
7.38501e-12
1.98928e-11
7.90559e-12
1.77668e-11
8.41632e-12
1.55104e-11
8.89835e-12
1.31333e-11
9.34527e-12
1.0648e-11
9.74062e-12
8.07124e-12
1.00752e-11
5.42235e-12
1.03364e-11
2.72386e-12
1.05163e-11
1.06077e-11
4.08611e-11
1.14136e-14
4.08549e-11
3.44158e-14
4.08443e-11
5.79457e-14
4.08294e-11
8.23636e-14
4.08097e-11
1.08042e-13
4.07851e-11
1.35373e-13
4.07552e-11
1.6477e-13
4.07194e-11
1.96678e-13
4.06773e-11
2.31574e-13
4.06281e-11
2.6998e-13
4.05712e-11
3.12464e-13
4.05057e-11
3.59649e-13
4.04305e-11
4.12222e-13
4.03446e-11
4.70937e-13
4.02467e-11
5.36629e-13
4.01352e-11
6.10217e-13
4.00085e-11
6.92716e-13
3.98647e-11
7.85241e-13
3.97017e-11
8.89019e-13
3.95172e-11
1.00539e-12
3.93083e-11
1.13583e-12
3.90722e-11
1.28191e-12
3.88055e-11
1.44537e-12
3.85045e-11
1.62802e-12
3.81649e-11
1.83186e-12
3.77823e-11
2.05887e-12
3.73515e-11
2.31129e-12
3.6867e-11
2.59111e-12
3.63227e-11
2.90081e-12
3.5712e-11
3.2419e-12
3.50279e-11
3.61727e-12
3.42626e-11
4.02702e-12
3.34083e-11
4.47485e-12
3.24564e-11
4.95777e-12
3.13985e-11
5.48108e-12
3.0226e-11
6.0363e-12
2.89304e-11
6.63116e-12
2.75041e-11
7.24953e-12
2.59396e-11
7.90093e-12
2.42321e-11
8.56179e-12
2.23771e-11
9.23973e-12
2.03737e-11
9.90786e-12
1.82233e-11
1.05663e-11
1.59313e-11
1.11895e-11
1.35068e-11
1.17695e-11
1.09629e-11
1.22839e-11
8.31742e-12
1.27206e-11
5.59147e-12
1.30621e-11
2.80998e-12
1.32977e-11
1.34176e-11
4.08875e-11
1.33182e-14
4.08818e-11
4.01593e-14
4.08721e-11
6.76173e-14
4.08583e-11
9.61136e-14
4.08403e-11
1.26084e-13
4.08177e-11
1.57987e-13
4.07901e-11
1.92307e-13
4.07572e-11
2.29564e-13
4.07185e-11
2.7032e-13
4.06733e-11
3.15185e-13
4.06209e-11
3.64826e-13
4.05606e-11
4.19976e-13
4.04914e-11
4.81443e-13
4.04122e-11
5.50117e-13
4.03218e-11
6.26982e-13
4.02189e-11
7.13124e-13
4.01018e-11
8.09747e-13
3.99689e-11
9.18173e-13
3.9818e-11
1.03986e-12
3.9647e-11
1.17642e-12
3.94532e-11
1.32959e-12
3.92338e-11
1.5013e-12
3.89855e-11
1.69361e-12
3.87048e-11
1.90874e-12
3.83875e-11
2.14912e-12
3.80291e-11
2.41718e-12
3.76247e-11
2.71572e-12
3.71686e-11
3.04718e-12
3.66547e-11
3.41477e-12
3.60761e-11
3.82035e-12
3.54258e-11
4.26789e-12
3.46952e-11
4.75732e-12
3.38764e-11
5.2942e-12
3.29598e-11
5.87405e-12
3.19362e-11
6.50571e-12
3.07956e-11
7.17631e-12
2.95283e-11
7.90023e-12
2.81252e-11
8.65199e-12
2.65765e-11
9.45198e-12
2.48762e-11
1.02616e-11
2.3017e-11
1.11014e-11
2.09971e-11
1.19279e-11
1.88164e-11
1.27491e-11
1.64789e-11
1.35275e-11
1.39939e-11
1.42561e-11
1.13744e-11
1.49041e-11
8.63971e-12
1.54563e-11
5.81316e-12
1.58893e-11
2.92297e-12
1.61887e-11
1.63412e-11
4.09134e-11
1.50252e-14
4.09083e-11
4.53071e-14
4.08996e-11
7.62865e-14
4.08873e-11
1.0844e-13
4.08711e-11
1.42261e-13
4.08508e-11
1.78267e-13
4.08261e-11
2.17009e-13
4.07966e-11
2.59074e-13
4.07618e-11
3.051e-13
4.07212e-11
3.55779e-13
4.06742e-11
4.11871e-13
4.06199e-11
4.74208e-13
4.05577e-11
5.43711e-13
4.04864e-11
6.21395e-13
4.0405e-11
7.08385e-13
4.03122e-11
8.05927e-13
4.02065e-11
9.15397e-13
4.00863e-11
1.03832e-12
3.99498e-11
1.17638e-12
3.97948e-11
1.33144e-12
3.96188e-11
1.50552e-12
3.94192e-11
1.70086e-12
3.91929e-11
1.91989e-12
3.89364e-11
2.16522e-12
3.86458e-11
2.43973e-12
3.83165e-11
2.74633e-12
3.79439e-11
3.0884e-12
3.7522e-11
3.46889e-12
3.70449e-11
3.89185e-12
3.65054e-11
4.3595e-12
3.58963e-11
4.87708e-12
3.52086e-11
5.44441e-12
3.44337e-11
6.06925e-12
3.35611e-11
6.74557e-12
3.25807e-11
7.48632e-12
3.14811e-11
8.27418e-12
3.02507e-11
9.13061e-12
2.88791e-11
1.00214e-11
2.73536e-11
1.09769e-11
2.56665e-11
1.19462e-11
2.38076e-11
1.29592e-11
2.17722e-11
1.39607e-11
1.95581e-11
1.4962e-11
1.71674e-11
1.5916e-11
1.46088e-11
1.68136e-11
1.18958e-11
1.76157e-11
9.04923e-12
1.83022e-11
6.09546e-12
1.88422e-11
3.06702e-12
1.92167e-11
1.94078e-11
4.09385e-11
1.65087e-14
4.0934e-11
4.97808e-14
4.09265e-11
8.38214e-14
4.09158e-11
1.19155e-13
4.09017e-11
1.56326e-13
4.08841e-11
1.95905e-13
4.08626e-11
2.38499e-13
4.08369e-11
2.84757e-13
4.08066e-11
3.35384e-13
4.07712e-11
3.91146e-13
4.07302e-11
4.52884e-13
4.06829e-11
5.21521e-13
4.06285e-11
5.98079e-13
4.05662e-11
6.83689e-13
4.0495e-11
7.79604e-13
4.04137e-11
8.87215e-13
4.0321e-11
1.00807e-12
4.02155e-11
1.14387e-12
4.00953e-11
1.29652e-12
3.99586e-11
1.46811e-12
3.98032e-11
1.66095e-12
3.96264e-11
1.87759e-12
3.94255e-11
2.12082e-12
3.9197e-11
2.39364e-12
3.89373e-11
2.69941e-12
3.86421e-11
3.04151e-12
3.83066e-11
3.42398e-12
3.79251e-11
3.85029e-12
3.74917e-11
4.32543e-12
3.69989e-11
4.85204e-12
3.64396e-11
5.43699e-12
3.58038e-11
6.07968e-12
3.50831e-11
6.79121e-12
3.42651e-11
7.56268e-12
3.33396e-11
8.41437e-12
3.22923e-11
9.31991e-12
3.11105e-11
1.03166e-11
2.97811e-11
1.13489e-11
2.82871e-11
1.24767e-11
2.66207e-11
1.36111e-11
2.47637e-11
1.48224e-11
2.27118e-11
1.60126e-11
2.04601e-11
1.72188e-11
1.80074e-11
1.83697e-11
1.53624e-11
1.94622e-11
1.25368e-11
2.04427e-11
9.55454e-12
2.12868e-11
6.4446e-12
2.19535e-11
3.24551e-12
2.24174e-11
2.26546e-11
4.09748e-11
1.77461e-14
4.09711e-11
5.35131e-14
4.09648e-11
9.01082e-14
4.09559e-11
1.28097e-13
4.09441e-11
1.68067e-13
4.09294e-11
2.10634e-13
4.09114e-11
2.56452e-13
4.089e-11
3.06225e-13
4.08646e-11
3.60714e-13
4.0835e-11
4.20748e-13
4.08007e-11
4.8724e-13
4.0761e-11
5.61193e-13
4.07154e-11
6.43717e-13
4.0663e-11
7.36045e-13
4.0603e-11
8.39545e-13
4.05345e-11
9.55741e-13
4.04562e-11
1.08632e-12
4.03669e-11
1.23318e-12
4.0265e-11
1.3984e-12
4.01488e-11
1.58431e-12
4.00163e-11
1.79348e-12
3.98651e-11
2.02875e-12
3.96926e-11
2.29327e-12
3.94958e-11
2.59044e-12
3.92711e-11
2.92408e-12
3.90144e-11
3.29809e-12
3.87212e-11
3.71717e-12
3.83858e-11
4.18539e-12
3.80026e-11
4.70875e-12
3.75637e-11
5.29039e-12
3.7062e-11
5.93891e-12
3.64869e-11
6.6536e-12
3.58296e-11
7.4489e-12
3.50765e-11
8.31374e-12
3.42161e-11
9.27523e-12
3.32329e-11
1.03e-11
3.21107e-11
1.14385e-11
3.08358e-11
1.26198e-11
2.93862e-11
1.39246e-11
2.77514e-11
1.52413e-11
2.59101e-11
1.66602e-11
2.38502e-11
1.80672e-11
2.15623e-11
1.9503e-11
1.90421e-11
2.08853e-11
1.62957e-11
2.22057e-11
1.33352e-11
2.34e-11
1.01862e-11
2.44339e-11
6.88245e-12
2.52554e-11
3.46969e-12
2.58289e-11
2.61232e-11
4.10094e-11
1.87183e-14
4.10065e-11
5.64455e-14
4.10015e-11
9.50487e-14
4.09945e-11
1.35127e-13
4.09853e-11
1.773e-13
4.09737e-11
2.22222e-13
4.09595e-11
2.70587e-13
4.09426e-11
3.23139e-13
4.09226e-11
3.80688e-13
4.08993e-11
4.44116e-13
4.08721e-11
5.14393e-13
4.08407e-11
5.92589e-13
4.08045e-11
6.79891e-13
4.07629e-11
7.77617e-13
4.07153e-11
8.87235e-13
4.06606e-11
1.01038e-12
4.0598e-11
1.14888e-12
4.05264e-11
1.30477e-12
4.04445e-11
1.48033e-12
4.03507e-11
1.67808e-12
4.02433e-11
1.90084e-12
4.01203e-11
2.15174e-12
3.99793e-11
2.43426e-12
3.98176e-11
2.75217e-12
3.96319e-11
3.10979e-12
3.94184e-11
3.51153e-12
3.91729e-11
3.96278e-12
3.88899e-11
4.46822e-12
3.85641e-11
5.035e-12
3.81873e-11
5.66674e-12
3.77531e-11
6.3742e-12
3.72495e-11
7.15619e-12
3.6669e-11
8.032e-12
3.59943e-11
8.98628e-12
3.52163e-11
1.00585e-11
3.43131e-11
1.11993e-11
3.327e-11
1.2491e-11
3.20676e-11
1.38167e-11
3.06755e-11
1.53302e-11
2.90901e-11
1.68218e-11
2.72638e-11
1.85009e-11
2.5194e-11
2.0137e-11
2.28689e-11
2.18392e-11
2.02731e-11
2.34838e-11
1.74141e-11
2.50722e-11
1.42966e-11
2.65207e-11
1.09511e-11
2.77841e-11
7.41453e-12
2.87948e-11
3.7429e-12
2.95037e-11
2.98687e-11
4.10416e-11
1.94098e-14
4.10396e-11
5.85316e-14
4.1036e-11
9.85645e-14
4.1031e-11
1.40131e-13
4.10245e-11
1.83879e-13
4.10162e-11
2.30486e-13
4.10061e-11
2.80676e-13
4.0994e-11
3.35228e-13
4.09797e-11
3.94984e-13
4.0963e-11
4.60869e-13
4.09435e-11
5.33897e-13
4.09209e-11
6.15192e-13
4.08947e-11
7.05999e-13
4.08646e-11
8.07706e-13
4.083e-11
9.21863e-13
4.07902e-11
1.0502e-12
4.07444e-11
1.19465e-12
4.06918e-11
1.35739e-12
4.06313e-11
1.54084e-12
4.05616e-11
1.74772e-12
4.04814e-11
1.98106e-12
4.03888e-11
2.24425e-12
4.0282e-11
2.54108e-12
4.01584e-11
2.8757e-12
4.00153e-11
3.25289e-12
3.98492e-11
3.67755e-12
3.96562e-11
4.15578e-12
3.94311e-11
4.69295e-12
3.91691e-11
5.29726e-12
3.88617e-11
5.97316e-12
3.85031e-11
6.73329e-12
3.80806e-11
7.57685e-12
3.75864e-11
8.52702e-12
3.70026e-11
9.56669e-12
3.63176e-11
1.07443e-11
3.55101e-11
1.20017e-11
3.45587e-11
1.34416e-11
3.34461e-11
1.4923e-11
3.21338e-11
1.66379e-11
3.06141e-11
1.83342e-11
2.88448e-11
2.02613e-11
2.67954e-11
2.2176e-11
2.44464e-11
2.41792e-11
2.17784e-11
2.61425e-11
1.87912e-11
2.80525e-11
1.54905e-11
2.98146e-11
1.19059e-11
3.13642e-11
8.08202e-12
3.26147e-11
4.0864e-12
3.34967e-11
3.39527e-11
4.10836e-11
1.98095e-14
4.10824e-11
5.97379e-14
4.10804e-11
1.00599e-13
4.10775e-11
1.43031e-13
4.10737e-11
1.87695e-13
4.10689e-11
2.35289e-13
4.1063e-11
2.86554e-13
4.10559e-11
3.42289e-13
4.10476e-11
4.03363e-13
4.10377e-11
4.70724e-13
4.10262e-11
5.4542e-13
4.10128e-11
6.2861e-13
4.09972e-11
7.21583e-13
4.09791e-11
8.25778e-13
4.09581e-11
9.42803e-13
4.09339e-11
1.07446e-12
4.09058e-11
1.22278e-12
4.08731e-11
1.39002e-12
4.08352e-11
1.57875e-12
4.07911e-11
1.79183e-12
4.07397e-11
2.03249e-12
4.06796e-11
2.30433e-12
4.06092e-11
2.61143e-12
4.05266e-11
2.95829e-12
4.04295e-11
3.35009e-12
4.03146e-11
3.79226e-12
4.01791e-11
4.29154e-12
4.00178e-11
4.85402e-12
3.98268e-11
5.48898e-12
3.95974e-11
6.20178e-12
3.93257e-11
7.00698e-12
3.89961e-11
7.90435e-12
3.86061e-11
8.92172e-12
3.81292e-11
1.00389e-11
3.7565e-11
1.13187e-11
3.6874e-11
1.26835e-11
3.60503e-11
1.42846e-11
3.50575e-11
1.59012e-11
3.38458e-11
1.78794e-11
3.24428e-11
1.97226e-11
3.07056e-11
2.20302e-11
2.86556e-11
2.42267e-11
2.62909e-11
2.65663e-11
2.35461e-11
2.88939e-11
2.04288e-11
3.11841e-11
1.69203e-11
3.33304e-11
1.30593e-11
3.52343e-11
8.89248e-12
3.67872e-11
4.50529e-12
3.78896e-11
3.84627e-11
4.11222e-11
1.99105e-14
4.11219e-11
6.00432e-14
4.11214e-11
1.01116e-13
4.11207e-11
1.43773e-13
4.11197e-11
1.88681e-13
4.11184e-11
2.36545e-13
4.11168e-11
2.88114e-13
4.11149e-11
3.44195e-13
4.11126e-11
4.05668e-13
4.11099e-11
4.73495e-13
4.11065e-11
5.48739e-13
4.11026e-11
6.32579e-13
4.10978e-11
7.26328e-13
4.10922e-11
8.31456e-13
4.10853e-11
9.49609e-13
4.10772e-11
1.08264e-12
4.10673e-11
1.23262e-12
4.10554e-11
1.40191e-12
4.1041e-11
1.59315e-12
4.10235e-11
1.80932e-12
4.10022e-11
2.0538e-12
4.09761e-11
2.33039e-12
4.09442e-11
2.64339e-12
4.09048e-11
2.99759e-12
4.08564e-11
3.39856e-12
4.07962e-11
3.85221e-12
4.0722e-11
4.36584e-12
4.06292e-11
4.94636e-12
4.05147e-11
5.60388e-12
4.037e-11
6.34511e-12
4.0192e-11
7.18594e-12
3.99655e-11
8.12806e-12
3.96869e-11
9.20189e-12
3.9332e-11
1.03889e-11
3.88934e-11
1.17588e-11
3.834e-11
1.32295e-11
3.76475e-11
1.4976e-11
3.6795e-11
1.67448e-11
3.57116e-11
1.89536e-11
3.44221e-11
2.10034e-11
3.2846e-11
2.35855e-11
3.0896e-11
2.61557e-11
2.85438e-11
2.88991e-11
2.57423e-11
3.16772e-11
2.24745e-11
3.44374e-11
1.87284e-11
3.7063e-11
1.45284e-11
3.94248e-11
9.93238e-12
4.13756e-11
5.04448e-12
4.27725e-11
4.35031e-11
4.11568e-11
1.97101e-14
4.11574e-11
5.944e-14
4.11584e-11
1.00104e-13
4.11598e-11
1.4234e-13
4.11617e-11
1.86813e-13
4.1164e-11
2.34222e-13
4.11668e-11
2.85314e-13
4.11701e-11
3.40892e-13
4.1174e-11
4.01834e-13
4.11784e-11
4.691e-13
4.11833e-11
5.43753e-13
4.1189e-11
6.26975e-13
4.11952e-11
7.20082e-13
4.12021e-11
8.24552e-13
4.12097e-11
9.42045e-13
4.12179e-11
1.07443e-12
4.12267e-11
1.22382e-12
4.1236e-11
1.39259e-12
4.12457e-11
1.58346e-12
4.12555e-11
1.79947e-12
4.12652e-11
2.0441e-12
4.12743e-11
2.32129e-12
4.12822e-11
2.63551e-12
4.12879e-11
2.99181e-12
4.12906e-11
3.39602e-12
4.12881e-11
3.85453e-12
4.12793e-11
4.37504e-12
4.12599e-11
4.96535e-12
4.12287e-11
5.63613e-12
4.11767e-11
6.3958e-12
4.11049e-11
7.26072e-12
4.09933e-11
8.23618e-12
4.08503e-11
9.35227e-12
4.06334e-11
1.05974e-11
4.03682e-11
1.2041e-11
3.99724e-11
1.36069e-11
3.94928e-11
1.54908e-11
3.88188e-11
1.73844e-11
3.79113e-11
1.99229e-11
3.69325e-11
2.19391e-11
3.53715e-11
2.52117e-11
3.33785e-11
2.81587e-11
3.10954e-11
3.12204e-11
2.8263e-11
3.45266e-11
2.48819e-11
3.78426e-11
2.08796e-11
4.10821e-11
1.62966e-11
4.40237e-11
1.11941e-11
4.64891e-11
5.70295e-12
4.82729e-11
4.92135e-11
4.11994e-11
1.92107e-14
4.12009e-11
5.79346e-14
4.12034e-11
9.75715e-14
4.1207e-11
1.38746e-13
4.12117e-11
1.82108e-13
4.12176e-11
2.28342e-13
4.12247e-11
2.78179e-13
4.12332e-11
3.32407e-13
4.12432e-11
3.91888e-13
4.12547e-11
4.57567e-13
4.1268e-11
5.30488e-13
4.12831e-11
6.11817e-13
4.13004e-11
7.02856e-13
4.13198e-11
8.05065e-13
4.13418e-11
9.20091e-13
4.13664e-11
1.04979e-12
4.1394e-11
1.19628e-12
4.14246e-11
1.36193e-12
4.14586e-11
1.54946e-12
4.14961e-11
1.76196e-12
4.15373e-11
2.00294e-12
4.15822e-11
2.27641e-12
4.16307e-11
2.58696e-12
4.16827e-11
2.93979e-12
4.17378e-11
3.34094e-12
4.1795e-11
3.79716e-12
4.18538e-11
4.31646e-12
4.1911e-11
4.90747e-12
4.19665e-11
5.58118e-12
4.20128e-11
6.34793e-12
4.20509e-11
7.22398e-12
4.20646e-11
8.21904e-12
4.20578e-11
9.36168e-12
4.19988e-11
1.06497e-11
4.18944e-11
1.2149e-11
4.16926e-11
1.3798e-11
4.13851e-11
1.58003e-11
4.09265e-11
1.78298e-11
4.01664e-11
2.06707e-11
3.93096e-11
2.27964e-11
3.82111e-11
1.44803e-11
1.17865e-11
3.65584e-11
1.34781e-11
1.62847e-11
3.434e-11
1.53046e-11
1.8097e-11
3.14963e-11
1.73216e-11
2.00131e-11
2.79644e-11
1.94112e-11
2.19327e-11
2.36837e-11
2.15261e-11
2.38053e-11
1.8634e-11
2.35597e-11
2.54891e-11
1.28792e-11
2.53751e-11
2.68499e-11
6.58654e-12
2.68116e-11
2.77403e-11
2.77356e-11
2.80531e-11
4.12355e-11
1.84187e-14
4.12379e-11
5.55472e-14
4.12419e-11
9.35535e-14
4.12476e-11
1.33039e-13
4.12551e-11
1.74628e-13
4.12645e-11
2.1898e-13
4.12759e-11
2.66799e-13
4.12894e-11
3.18847e-13
4.13054e-11
3.75954e-13
4.13239e-11
4.39034e-13
4.13453e-11
5.09098e-13
4.13698e-11
5.87276e-13
4.13979e-11
6.74833e-13
4.14297e-11
7.73189e-13
4.14659e-11
8.83951e-13
4.15067e-11
1.00894e-12
4.15528e-11
1.15021e-12
4.16046e-11
1.31011e-12
4.16628e-11
1.49133e-12
4.17278e-11
1.69692e-12
4.18004e-11
1.93037e-12
4.18811e-11
2.19569e-12
4.19706e-11
2.49749e-12
4.20693e-11
2.84107e-12
4.21779e-11
3.23251e-12
4.2296e-11
3.67887e-12
4.24247e-11
4.18824e-12
4.25616e-11
4.77005e-12
4.27089e-11
5.43515e-12
4.2859e-11
6.19621e-12
4.30187e-11
7.06775e-12
4.31664e-11
8.06692e-12
4.3324e-11
9.21297e-12
4.34329e-11
1.05294e-11
4.35632e-11
1.20407e-11
4.3552e-11
1.37809e-11
4.36293e-11
1.57749e-11
4.33064e-11
1.80843e-11
4.3401e-11
2.06996e-11
2.17344e-11
2.37997e-11
2.04957e-11
-1.2086e-11
1.26479e-11
2.14661e-11
-2.01213e-11
1.973e-11
1.3852e-11
-1.94975e-11
1.90013e-11
1.58223e-11
-1.85389e-11
1.79059e-11
1.79945e-11
-1.72276e-11
1.63935e-11
2.02911e-11
-1.54713e-11
1.44019e-11
2.26381e-11
-1.32192e-11
1.19137e-11
2.48961e-11
-1.04857e-11
8.94871e-12
2.6931e-11
-7.30117e-12
5.56552e-12
2.85583e-11
-3.75242e-12
1.89015e-12
2.96049e-11
4.1271e-11
1.73456e-14
4.12742e-11
5.23115e-14
4.12797e-11
8.81065e-14
4.12874e-11
1.25298e-13
4.12976e-11
1.64477e-13
4.13103e-11
2.06267e-13
4.13257e-11
2.51334e-13
4.13442e-11
3.00398e-13
4.13659e-11
3.54248e-13
4.13912e-11
4.1375e-13
4.14204e-11
4.79866e-13
4.1454e-11
5.53671e-13
4.14925e-11
6.3637e-13
4.15364e-11
7.29321e-13
4.15863e-11
8.3406e-13
4.16429e-11
9.52331e-13
4.1707e-11
1.08612e-12
4.17794e-11
1.23769e-12
4.18611e-11
1.40963e-12
4.19531e-11
1.60492e-12
4.20565e-11
1.82695e-12
4.21726e-11
2.07967e-12
4.23025e-11
2.36761e-12
4.24475e-11
2.69602e-12
4.26091e-11
3.07096e-12
4.27882e-11
3.49957e-12
4.29868e-11
3.98992e-12
4.32042e-11
4.55198e-12
4.34437e-11
5.19632e-12
4.37008e-11
5.93747e-12
4.39819e-11
6.78845e-12
4.42728e-11
7.77219e-12
4.45881e-11
8.90146e-12
4.48914e-11
1.02181e-11
4.52197e-11
1.17202e-11
4.54805e-11
1.35039e-11
4.5785e-11
1.54871e-11
4.58713e-11
1.79636e-11
4.61528e-11
2.04608e-11
2.37408e-11
2.41446e-11
2.19836e-11
-1.2753e-11
1.30754e-11
2.35909e-11
-2.18774e-11
2.15967e-11
-1.45093e-11
1.47258e-11
-2.14459e-11
2.10548e-11
-1.66085e-11
1.6975e-11
-2.06723e-11
2.01113e-11
-1.89331e-11
1.94935e-11
-1.94808e-11
1.86741e-11
-2.14168e-11
2.22383e-11
-1.77632e-11
1.66278e-11
-2.39591e-11
2.51173e-11
-1.5345e-11
1.39216e-11
-2.64718e-11
2.79057e-11
-1.23282e-11
1.05828e-11
-2.87446e-11
3.04903e-11
-8.6795e-12
6.64314e-12
-3.05538e-11
3.25879e-11
-4.4941e-12
2.26756e-12
-3.16869e-11
3.39145e-11
4.13052e-11
1.60068e-14
4.13092e-11
4.82747e-14
4.1316e-11
8.13096e-14
4.13257e-11
1.15637e-13
4.13384e-11
1.51803e-13
4.13543e-11
1.90386e-13
4.13736e-11
2.32004e-13
4.13967e-11
2.77324e-13
4.14238e-11
3.27078e-13
4.14555e-11
3.82072e-13
4.14922e-11
4.43201e-13
4.15344e-11
5.11467e-13
4.15828e-11
5.87994e-13
4.1638e-11
6.74052e-13
4.1701e-11
7.71081e-13
4.17727e-11
8.80717e-13
4.1854e-11
1.00483e-12
4.19461e-11
1.14555e-12
4.20504e-11
1.30534e-12
4.21683e-11
1.48702e-12
4.23014e-11
1.69383e-12
4.24516e-11
1.92955e-12
4.26207e-11
2.19853e-12
4.28108e-11
2.50587e-12
4.30245e-11
2.85743e-12
4.32636e-11
3.2603e-12
4.35317e-11
3.72229e-12
4.38295e-11
4.25363e-12
4.41626e-11
4.86443e-12
4.45281e-11
5.57043e-12
4.49364e-11
6.38336e-12
4.53743e-11
7.33025e-12
4.58641e-11
8.41942e-12
4.63672e-11
9.70486e-12
4.69338e-11
1.11715e-11
4.74686e-11
1.29458e-11
4.80753e-11
1.49186e-11
4.85614e-11
1.74288e-11
4.90634e-11
2.003e-11
2.56697e-11
2.37309e-11
2.37219e-11
-1.30736e-11
1.31457e-11
2.5696e-11
-2.38751e-11
2.37419e-11
-1.51308e-11
1.52365e-11
-2.37101e-11
2.34663e-11
-1.75118e-11
1.77641e-11
-2.3201e-11
2.27765e-11
-2.02156e-11
2.06736e-11
-2.22435e-11
2.15365e-11
-2.32007e-11
2.39649e-11
-2.07416e-11
1.94818e-11
-2.62637e-11
2.76078e-11
-1.80291e-11
1.65226e-11
-2.94837e-11
3.10317e-11
-1.47582e-11
1.2782e-11
-3.24607e-11
3.44522e-11
-1.05608e-11
8.13282e-12
-3.48813e-11
3.73138e-11
-5.52668e-12
2.79627e-12
-3.6404e-11
3.91375e-11
4.13364e-11
1.44224e-14
4.13412e-11
4.34967e-14
4.13492e-11
7.32636e-14
4.13606e-11
1.04198e-13
4.13757e-11
1.36794e-13
4.13945e-11
1.71573e-13
4.14174e-11
2.09094e-13
4.14447e-11
2.49964e-13
4.1477e-11
2.94843e-13
4.15146e-11
3.44463e-13
4.15582e-11
3.99636e-13
4.16084e-11
4.61274e-13
4.1666e-11
5.304e-13
4.17319e-11
6.08173e-13
4.1807e-11
6.95906e-13
4.18927e-11
7.95099e-13
4.199e-11
9.07465e-13
4.21006e-11
1.03497e-12
4.22261e-11
1.17987e-12
4.23684e-11
1.34478e-12
4.25295e-11
1.53272e-12
4.27119e-11
1.7472e-12
4.29181e-11
1.99229e-12
4.31512e-11
2.27281e-12
4.34144e-11
2.59426e-12
4.37111e-11
2.96345e-12
4.40459e-11
3.38778e-12
4.44217e-11
3.8773e-12
4.48453e-11
4.44156e-12
4.53177e-11
5.09664e-12
4.58496e-11
5.85318e-12
4.64363e-11
6.74023e-12
4.70961e-11
7.7635e-12
4.78105e-11
8.98344e-12
4.86114e-11
1.03786e-11
4.94518e-11
1.20915e-11
5.03839e-11
1.40025e-11
5.13116e-11
1.64745e-11
5.22853e-11
1.90886e-11
2.75954e-11
2.27699e-11
2.56024e-11
-1.30034e-11
1.28363e-11
2.78147e-11
-2.60864e-11
2.6138e-11
-1.53888e-11
1.53264e-11
-2.62809e-11
2.62411e-11
-1.80472e-11
1.81089e-11
-2.61489e-11
2.59571e-11
-2.11726e-11
2.14116e-11
-2.55375e-11
2.51855e-11
-2.48596e-11
2.5293e-11
-1.25434e-11
-1.50598e-11
1.2022e-11
1.52332e-11
-1.09114e-11
-1.74867e-11
1.04308e-11
1.77366e-11
-8.88637e-12
-1.95534e-11
8.25267e-12
2.00278e-11
-6.15945e-12
-2.12177e-11
5.35518e-12
2.19208e-11
-2.78326e-12
2.30497e-11
-2.21707e-11
1.86304e-12
4.1364e-11
1.26159e-14
4.13695e-11
3.80491e-14
4.13787e-11
6.40894e-14
4.13917e-11
9.11531e-14
4.14088e-11
1.19673e-13
4.14303e-11
1.50109e-13
4.14565e-11
1.82949e-13
4.14877e-11
2.18727e-13
4.15245e-11
2.58023e-13
4.15675e-11
3.01483e-13
4.16173e-11
3.49821e-13
4.16748e-11
4.0384e-13
4.17407e-11
4.64444e-13
4.18163e-11
5.32657e-13
4.19025e-11
6.09644e-13
4.20009e-11
6.96733e-13
4.21129e-11
7.95447e-13
4.22404e-11
9.07538e-13
4.23852e-11
1.03502e-12
4.25498e-11
1.18024e-12
4.27367e-11
1.3459e-12
4.29487e-11
1.53517e-12
4.31893e-11
1.75173e-12
4.34622e-11
1.99996e-12
4.37717e-11
2.28489e-12
4.41222e-11
2.61279e-12
4.45199e-11
2.99045e-12
4.49696e-11
3.42731e-12
4.54798e-11
3.9322e-12
4.60548e-11
4.52056e-12
4.6708e-11
5.20235e-12
4.74395e-11
6.0058e-12
4.82714e-11
6.93705e-12
4.9194e-11
8.05403e-12
5.02419e-11
9.34217e-12
5.13881e-11
1.09308e-11
5.26752e-11
1.27373e-11
5.4064e-11
1.50594e-11
5.55519e-11
1.76351e-11
2.95534e-11
2.11252e-11
2.76038e-11
-1.25081e-11
1.20974e-11
2.9995e-11
-2.84758e-11
2.87547e-11
-1.52141e-11
1.49277e-11
-2.91347e-11
2.93499e-11
-1.8098e-11
1.79029e-11
-2.95369e-11
2.95943e-11
-2.15643e-11
2.15437e-11
-2.95077e-11
2.92501e-11
-2.56373e-11
2.59433e-11
-1.5172e-11
-1.59178e-11
1.46738e-11
1.61081e-11
-1.35723e-11
-1.8888e-11
1.30783e-11
1.9249e-11
-1.13762e-11
-2.18874e-11
1.06716e-11
2.25292e-11
-8.12171e-12
-2.45245e-11
7.12409e-12
2.54886e-11
-3.74657e-12
2.74041e-11
-2.61929e-11
2.52237e-12
4.1389e-11
1.0615e-14
4.13951e-11
3.20146e-14
4.14052e-11
5.39261e-14
4.14197e-11
7.67001e-14
4.14387e-11
1.00702e-13
4.14625e-11
1.26319e-13
4.14915e-11
1.53964e-13
4.15261e-11
1.84087e-13
4.1567e-11
2.17179e-13
4.16147e-11
2.53785e-13
4.167e-11
2.94511e-13
4.17338e-11
3.40036e-13
4.18071e-11
3.91127e-13
4.18911e-11
4.48653e-13
4.19872e-11
5.13606e-13
4.20968e-11
5.87115e-13
4.22218e-11
6.7048e-13
4.23641e-11
7.65198e-13
4.25262e-11
8.72997e-13
4.27106e-11
9.95883e-13
4.29203e-11
1.13619e-12
4.31588e-11
1.29665e-12
4.34302e-11
1.48046e-12
4.37387e-11
1.69142e-12
4.40898e-11
1.93392e-12
4.4489e-11
2.21347e-12
4.49437e-11
2.53604e-12
4.54606e-11
2.91005e-12
4.60501e-11
3.34333e-12
4.67198e-11
3.84987e-12
4.74849e-11
4.43865e-12
4.83529e-11
5.13555e-12
4.93462e-11
5.9467e-12
5.04703e-11
6.92519e-12
5.17572e-11
8.06114e-12
5.32086e-11
9.47055e-12
5.48622e-11
1.10943e-11
5.67206e-11
1.3186e-11
5.87977e-11
1.55752e-11
3.1478e-11
1.87732e-11
2.9648e-11
-1.15505e-11
1.08914e-11
3.21576e-11
-3.09693e-11
3.15228e-11
-1.45307e-11
1.39672e-11
-3.22021e-11
3.27522e-11
-1.75628e-11
1.70256e-11
-3.3316e-11
3.37683e-11
-2.13411e-11
2.09123e-11
-3.41386e-11
3.43293e-11
-2.60252e-11
2.586e-11
-1.81867e-11
-1.65527e-11
1.78154e-11
1.66355e-11
-1.70586e-11
-2.03545e-11
1.66388e-11
2.06769e-11
-1.50213e-11
-2.46423e-11
1.42697e-11
2.53673e-11
-1.12419e-11
-2.88367e-11
9.96583e-12
3.01082e-11
-5.37926e-12
3.34896e-11
-3.1752e-11
3.64083e-12
4.14097e-11
8.45002e-15
4.14163e-11
2.54853e-14
4.14273e-11
4.29286e-14
4.14429e-11
6.10597e-14
4.14634e-11
8.01699e-14
4.14892e-11
1.00568e-13
4.15206e-11
1.22583e-13
4.15581e-11
1.46575e-13
4.16023e-11
1.72937e-13
4.1654e-11
2.02103e-13
4.1714e-11
2.34557e-13
4.17832e-11
2.70845e-13
4.18627e-11
3.11581e-13
4.19539e-11
3.57462e-13
4.20583e-11
4.09282e-13
4.21774e-11
4.67952e-13
4.23134e-11
5.34517e-13
4.24685e-11
6.10184e-13
4.26451e-11
6.96348e-13
4.28464e-11
7.94634e-13
4.30757e-11
9.06932e-13
4.33369e-11
1.03547e-12
4.36345e-11
1.18284e-12
4.39738e-11
1.35217e-12
4.43608e-11
1.54705e-12
4.48022e-11
1.77202e-12
4.53065e-11
2.03203e-12
4.58822e-11
2.33408e-12
4.65415e-11
2.68473e-12
4.7295e-11
3.09571e-12
4.81603e-11
3.57484e-12
4.91504e-11
4.14372e-12
5.02915e-11
4.80901e-12
5.15988e-11
5.61403e-12
5.31099e-11
6.55661e-12
5.48453e-11
7.72764e-12
5.68518e-11
9.09904e-12
5.9167e-11
1.08588e-11
6.18274e-11
1.29301e-11
3.32713e-11
1.56699e-11
3.16421e-11
-1.01029e-11
9.19226e-12
3.4198e-11
-3.34523e-11
3.43215e-11
-1.32568e-11
1.23751e-11
-3.53501e-11
3.63139e-11
-1.62923e-11
1.53351e-11
-3.73503e-11
3.83464e-11
-2.02241e-11
1.9242e-11
-3.93386e-11
4.0241e-11
-2.53585e-11
2.44694e-11
-2.1797e-11
-1.65668e-11
2.16675e-11
1.64232e-11
-2.16729e-11
-2.13674e-11
2.14908e-11
2.14591e-11
-2.0538e-11
-2.74426e-11
1.99808e-11
2.79675e-11
-1.64565e-11
-3.43807e-11
1.48813e-11
3.59755e-11
-8.47161e-12
4.26035e-11
-3.99265e-11
5.79989e-12
4.14258e-11
6.15439e-15
4.14327e-11
1.85618e-14
4.14444e-11
3.12667e-14
4.14609e-11
4.4473e-14
4.14827e-11
5.83935e-14
4.151e-11
7.32529e-14
4.15433e-11
8.92925e-14
4.15831e-11
1.06774e-13
4.16301e-11
1.25984e-13
4.1685e-11
1.47241e-13
4.17486e-11
1.70898e-13
4.18221e-11
1.97355e-13
4.19067e-11
2.2706e-13
4.20036e-11
2.60525e-13
4.21146e-11
2.98332e-13
4.22414e-11
3.41149e-13
4.23862e-11
3.89743e-13
4.25514e-11
4.45003e-13
4.27398e-11
5.07956e-13
4.29547e-11
5.79801e-13
4.31997e-11
6.61934e-13
4.34792e-11
7.56004e-13
4.37982e-11
8.63933e-13
4.41623e-11
9.88048e-13
4.45785e-11
1.13102e-12
4.50542e-11
1.29626e-12
4.5599e-11
1.48746e-12
4.6223e-11
1.70991e-12
4.69396e-11
1.96858e-12
4.77625e-11
2.27234e-12
4.87111e-11
2.62729e-12
4.98036e-11
3.0498e-12
5.10692e-11
3.54558e-12
5.25331e-11
4.14738e-12
5.42378e-11
4.85589e-12
5.62218e-11
5.73887e-12
5.85441e-11
6.78303e-12
6.12706e-11
8.12541e-12
6.44771e-11
9.73215e-12
3.48075e-11
1.18573e-11
3.34709e-11
-8.16245e-12
7.0178e-12
3.5965e-11
-3.57694e-11
3.69713e-11
-1.133e-11
1.01153e-11
-3.83726e-11
3.97987e-11
-1.41503e-11
1.2727e-11
-4.13767e-11
4.30295e-11
-1.79389e-11
1.62945e-11
-4.48023e-11
4.66509e-11
-2.31279e-11
2.12869e-11
-2.5862e-11
-1.54568e-11
2.61269e-11
1.49485e-11
-2.74682e-11
-2.10925e-11
2.77957e-11
2.06828e-11
-2.84912e-11
-2.94494e-11
2.94667e-11