/*--------------------------------*- C++ -*----------------------------------*\
| =========                 |                                                 |
| \\      /  F ield         | foam-extend: Open Source CFD                    |
|  \\    /   O peration     | Version:     4.0                                |
|   \\  /    A nd           | Web:         http://www.foam-extend.org         |
|    \\/     M anipulation  |                                                 |
\*---------------------------------------------------------------------------*/
FoamFile
{
    version     2.0;
    format      ascii;
    class       volVectorField;
    location    "0.0005";
    object      U;
}
// * * * * * * * * * * * * * * * * * * * * * * * * * * * * * * * * * * * * * //

dimensions      [0 1 -1 0 0 0 0];

internalField   nonuniform List<vector> 
28770
(
(0.00138962 4.05443e-08 0)
(0.00138946 1.22252e-07 0)
(0.00138913 2.05825e-07 0)
(0.00138862 2.92537e-07 0)
(0.00138793 3.83705e-07 0)
(0.00138706 4.80709e-07 0)
(0.00138598 5.8501e-07 0)
(0.00138468 6.98168e-07 0)
(0.00138314 8.21867e-07 0)
(0.00138133 9.5793e-07 0)
(0.00137924 1.10835e-06 0)
(0.00137682 1.27529e-06 0)
(0.00137405 1.46115e-06 0)
(0.00137087 1.66855e-06 0)
(0.00136725 1.90036e-06 0)
(0.00136313 2.15976e-06 0)
(0.00135846 2.45021e-06 0)
(0.00135316 2.77553e-06 0)
(0.00134716 3.13985e-06 0)
(0.00134037 3.5477e-06 0)
(0.00133271 4.00398e-06 0)
(0.00132407 4.51392e-06 0)
(0.00131433 5.08316e-06 0)
(0.00130337 5.71762e-06 0)
(0.00129104 6.42358e-06 0)
(0.0012772 7.20735e-06 0)
(0.00126168 8.07565e-06 0)
(0.0012443 9.0346e-06 0)
(0.00122487 1.0091e-05 0)
(0.00120318 1.12496e-05 0)
(0.00117901 1.2517e-05 0)
(0.00115216 1.38943e-05 0)
(0.00112236 1.53877e-05 0)
(0.00108941 1.69911e-05 0)
(0.00105306 1.87107e-05 0)
(0.0010131 2.05283e-05 0)
(0.000969299 2.24501e-05 0)
(0.000921496 2.44416e-05 0)
(0.000869525 2.65072e-05 0)
(0.000813289 2.85957e-05 0)
(0.000752737 3.07045e-05 0)
(0.000687879 3.27716e-05 0)
(0.000618823 3.47812e-05 0)
(0.000545732 3.667e-05 0)
(0.000468898 3.84086e-05 0)
(0.000388671 3.994e-05 0)
(0.000305527 4.12292e-05 0)
(0.000219999 4.22322e-05 0)
(0.000132721 4.29207e-05 0)
(4.43601e-05 4.32703e-05 0)
(0.00138978 1.21031e-07 0)
(0.00138962 3.64942e-07 0)
(0.00138929 6.14424e-07 0)
(0.00138879 8.7328e-07 0)
(0.00138812 1.14544e-06 0)
(0.00138726 1.43503e-06 0)
(0.00138619 1.74642e-06 0)
(0.00138491 2.08426e-06 0)
(0.00138339 2.45358e-06 0)
(0.00138161 2.85984e-06 0)
(0.00137955 3.30898e-06 0)
(0.00137717 3.8075e-06 0)
(0.00137443 4.36254e-06 0)
(0.0013713 4.98193e-06 0)
(0.00136773 5.67431e-06 0)
(0.00136367 6.44913e-06 0)
(0.00135906 7.3168e-06 0)
(0.00135383 8.28872e-06 0)
(0.00134791 9.37732e-06 0)
(0.00134122 1.05961e-05 0)
(0.00133366 1.19599e-05 0)
(0.00132513 1.34843e-05 0)
(0.00131551 1.51862e-05 0)
(0.00130468 1.70836e-05 0)
(0.0012925 1.91952e-05 0)
(0.00127882 2.15401e-05 0)
(0.00126347 2.41387e-05 0)
(0.00124627 2.70093e-05 0)
(0.00122703 3.01727e-05 0)
(0.00120555 3.36431e-05 0)
(0.0011816 3.74409e-05 0)
(0.00115497 4.1569e-05 0)
(0.0011254 4.60476e-05 0)
(0.00109267 5.08576e-05 0)
(0.00105652 5.60189e-05 0)
(0.00101676 6.14772e-05 0)
(0.000973131 6.72512e-05 0)
(0.000925469 7.32403e-05 0)
(0.000873593 7.94542e-05 0)
(0.000817398 8.57469e-05 0)
(0.000756826 9.21019e-05 0)
(0.00069187 9.83437e-05 0)
(0.00062264 0.000104414 0)
(0.000549284 0.000110128 0)
(0.0004721 0.000115391 0)
(0.000391432 0.000120031 0)
(0.000307771 0.000123939 0)
(0.000221655 0.000126981 0)
(0.000133737 0.00012907 0)
(4.47024e-05 0.000130132 0)
(0.0013901 1.99734e-07 0)
(0.00138994 6.02254e-07 0)
(0.00138962 1.01398e-06 0)
(0.00138914 1.44118e-06 0)
(0.00138848 1.89036e-06 0)
(0.00138765 2.36833e-06 0)
(0.00138661 2.8823e-06 0)
(0.00138537 3.43997e-06 0)
(0.0013839 4.04966e-06 0)
(0.00138217 4.72039e-06 0)
(0.00138016 5.46198e-06 0)
(0.00137785 6.2852e-06 0)
(0.0013752 7.20186e-06 0)
(0.00137216 8.22496e-06 0)
(0.00136869 9.36878e-06 0)
(0.00136474 1.0649e-05 0)
(0.00136026 1.2083e-05 0)
(0.00135518 1.36895e-05 0)
(0.00134942 1.54894e-05 0)
(0.0013429 1.75052e-05 0)
(0.00133554 1.97612e-05 0)
(0.00132723 2.2284e-05 0)
(0.00131785 2.51016e-05 0)
(0.00130729 2.8244e-05 0)
(0.00129541 3.1743e-05 0)
(0.00128204 3.56306e-05 0)
(0.00126704 3.99412e-05 0)
(0.00125021 4.47059e-05 0)
(0.00123136 4.99608e-05 0)
(0.00121029 5.57296e-05 0)
(0.00118677 6.20491e-05 0)
(0.00116058 6.89234e-05 0)
(0.00113146 7.63914e-05 0)
(0.00109918 8.44173e-05 0)
(0.00106346 9.30456e-05 0)
(0.0010241 0.000102174 0)
(0.000980817 0.000111855 0)
(0.000933445 0.000121895 0)
(0.000881771 0.000132345 0)
(0.000825673 0.000142921 0)
(0.000765071 0.000153639 0)
(0.000699934 0.000164158 0)
(0.000630362 0.000174417 0)
(0.00055648 0.000184075 0)
(0.000478595 0.000192988 0)
(0.000397041 0.000200851 0)
(0.000312332 0.000207483 0)
(0.000225023 0.000212649 0)
(0.000135805 0.000216199 0)
(4.5399e-05 0.000218002 0)
(0.00139057 2.75493e-07 0)
(0.00139042 8.30695e-07 0)
(0.00139011 1.3986e-06 0)
(0.00138965 1.98789e-06 0)
(0.00138903 2.60753e-06 0)
(0.00138823 3.26692e-06 0)
(0.00138724 3.97605e-06 0)
(0.00138605 4.74555e-06 0)
(0.00138464 5.58692e-06 0)
(0.00138299 6.51265e-06 0)
(0.00138108 7.53633e-06 0)
(0.00137887 8.67289e-06 0)
(0.00137633 9.93869e-06 0)
(0.00137342 1.13517e-05 0)
(0.00137011 1.29319e-05 0)
(0.00136633 1.4701e-05 0)
(0.00136204 1.66831e-05 0)
(0.00135717 1.89044e-05 0)
(0.00135165 2.1394e-05 0)
(0.0013454 2.41833e-05 0)
(0.00133834 2.73065e-05 0)
(0.00133036 3.08005e-05 0)
(0.00132134 3.47053e-05 0)
(0.00131118 3.90628e-05 0)
(0.00129973 4.3918e-05 0)
(0.00128685 4.93164e-05 0)
(0.00127236 5.53075e-05 0)
(0.00125608 6.19355e-05 0)
(0.00123783 6.92533e-05 0)
(0.00121739 7.72946e-05 0)
(0.00119452 8.61156e-05 0)
(0.00116901 9.57214e-05 0)
(0.00114057 0.000106175 0)
(0.00110898 0.000117422 0)
(0.00107391 0.000129539 0)
(0.00103518 0.000142374 0)
(0.000992441 0.000156019 0)
(0.000945533 0.000170192 0)
(0.000894181 0.000184983 0)
(0.000838249 0.000199983 0)
(0.000777621 0.000215221 0)
(0.000712216 0.000230218 0)
(0.000642143 0.000244877 0)
(0.000567468 0.000258714 0)
(0.000488527 0.00027151 0)
(0.000405626 0.000282821 0)
(0.000319323 0.000292378 0)
(0.000230189 0.000299832 0)
(0.000138979 0.00030496 0)
(4.64685e-05 0.000307567 0)
(0.00139118 3.47179e-07 0)
(0.00139104 1.04686e-06 0)
(0.00139076 1.76257e-06 0)
(0.00139032 2.50527e-06 0)
(0.00138974 3.28628e-06 0)
(0.00138899 4.11748e-06 0)
(0.00138806 5.01146e-06 0)
(0.00138695 5.98169e-06 0)
(0.00138563 7.04271e-06 0)
(0.00138408 8.21029e-06 0)
(0.00138228 9.50168e-06 0)
(0.0013802 1.09358e-05 0)
(0.00137782 1.25333e-05 0)
(0.00137509 1.43172e-05 0)
(0.00137197 1.63127e-05 0)
(0.00136842 1.85475e-05 0)
(0.00136438 2.10523e-05 0)
(0.00135979 2.38607e-05 0)
(0.00135459 2.70097e-05 0)
(0.00134869 3.05396e-05 0)
(0.00134202 3.44945e-05 0)
(0.00133447 3.89219e-05 0)
(0.00132594 4.38734e-05 0)
(0.00131631 4.94034e-05 0)
(0.00130545 5.55709e-05 0)
(0.00129319 6.24352e-05 0)
(0.00127939 7.00619e-05 0)
(0.00126386 7.85097e-05 0)
(0.0012464 8.78505e-05 0)
(0.00122681 9.81289e-05 0)
(0.00120482 0.000109426 0)
(0.00118022 0.000121746 0)
(0.00115271 0.00013519 0)
(0.00112206 0.000149672 0)
(0.00108789 0.000165334 0)
(0.00105003 0.000181933 0)
(0.00100806 0.000199678 0)
(0.000961805 0.000218093 0)
(0.000910941 0.000237454 0)
(0.000855281 0.000257045 0)
(0.000794677 0.00027711 0)
(0.000728973 0.000296818 0)
(0.000658265 0.000316207 0)
(0.000582558 0.000334505 0)
(0.0005022 0.000351504 0)
(0.000417475 0.000366549 0)
(0.000328988 0.000379299 0)
(0.000237343 0.000389256 0)
(0.000143379 0.000396119 0)
(4.79517e-05 0.00039961 0)
(0.00139193 4.13729e-07 0)
(0.0013918 1.24754e-06 0)
(0.00139154 2.10049e-06 0)
(0.00139114 2.98566e-06 0)
(0.00139061 3.91658e-06 0)
(0.00138992 4.90743e-06 0)
(0.00138907 5.97328e-06 0)
(0.00138804 7.13022e-06 0)
(0.00138683 8.39565e-06 0)
(0.0013854 9.78848e-06 0)
(0.00138375 1.13294e-05 0)
(0.00138184 1.3041e-05 0)
(0.00137964 1.49482e-05 0)
(0.00137712 1.70787e-05 0)
(0.00137425 1.94627e-05 0)
(0.00137097 2.21338e-05 0)
(0.00136724 2.5129e-05 0)
(0.001363 2.84889e-05 0)
(0.00135819 3.22585e-05 0)
(0.00135273 3.64869e-05 0)
(0.00134655 4.12277e-05 0)
(0.00133954 4.65393e-05 0)
(0.00133161 5.24849e-05 0)
(0.00132264 5.91319e-05 0)
(0.00131249 6.65534e-05 0)
(0.00130104 7.48234e-05 0)
(0.00128809 8.4025e-05 0)
(0.0012735 9.42317e-05 0)
(0.00125704 0.000105538 0)
(0.00123852 0.000117999 0)
(0.00121765 0.000131726 0)
(0.00119424 0.000146723 0)
(0.00116791 0.000163135 0)
(0.00113849 0.000180848 0)
(0.0011055 0.000200072 0)
(0.00106881 0.00022049 0)
(0.00102785 0.000242402 0)
(0.000982521 0.000265212 0)
(0.000932321 0.000289277 0)
(0.000877078 0.000313744 0)
(0.000816565 0.000338875 0)
(0.000750497 0.00036371 0)
(0.000679044 0.000388215 0)
(0.000602029 0.000411466 0)
(0.000519902 0.000433132 0)
(0.000432842 0.000452385 0)
(0.000341557 0.000468744 0)
(0.000246659 0.000481554 0)
(0.000149117 0.000490399 0)
(4.98866e-05 0.000494903 0)
(0.00139281 4.74151e-07 0)
(0.00139269 1.42975e-06 0)
(0.00139246 2.40733e-06 0)
(0.0013921 3.42191e-06 0)
(0.00139162 4.48904e-06 0)
(0.001391 5.62504e-06 0)
(0.00139024 6.8472e-06 0)
(0.00138932 8.17408e-06 0)
(0.00138823 9.6257e-06 0)
(0.00138695 1.12239e-05 0)
(0.00138546 1.29924e-05 0)
(0.00138375 1.49575e-05 0)
(0.00138177 1.7148e-05 0)
(0.00137951 1.95958e-05 0)
(0.00137692 2.23361e-05 0)
(0.00137396 2.54078e-05 0)
(0.0013706 2.88542e-05 0)
(0.00136677 3.27226e-05 0)
(0.00136242 3.70657e-05 0)
(0.00135747 4.1941e-05 0)
(0.00135186 4.74119e-05 0)
(0.0013455 5.35472e-05 0)
(0.00133827 6.04224e-05 0)
(0.00133009 6.81175e-05 0)
(0.00132081 7.67211e-05 0)
(0.0013103 8.63221e-05 0)
(0.0012984 9.7023e-05 0)
(0.00128493 0.000108913 0)
(0.00126967 0.000122114 0)
(0.00125245 0.000136691 0)
(0.00123294 0.0001528 0)
(0.00121098 0.000170431 0)
(0.00118612 0.000189812 0)
(0.00115822 0.000210755 0)
(0.00112671 0.000233641 0)
(0.00109147 0.000257931 0)
(0.00105185 0.00028428 0)
(0.0010077 0.000311588 0)
(0.000958463 0.000340854 0)
(0.000903845 0.000370363 0)
(0.000843601 0.00040122 0)
(0.000777286 0.000431481 0)
(0.000705027 0.000461724 0)
(0.000626539 0.000490364 0)
(0.000542266 0.000517272 0)
(0.000452345 0.000541221 0)
(0.000357551 0.000561677 0)
(0.000258546 0.00057773 0)
(0.000156449 0.000588845 0)
(5.23621e-05 0.000594512 0)
(0.0013938 5.27528e-07 0)
(0.0013937 1.59072e-06 0)
(0.00139349 2.67842e-06 0)
(0.00139318 3.8074e-06 0)
(0.00139276 4.99499e-06 0)
(0.00139222 6.25941e-06 0)
(0.00139156 7.61999e-06 0)
(0.00139076 9.09746e-06 0)
(0.00138981 1.07142e-05 0)
(0.0013887 1.24947e-05 0)
(0.0013874 1.44656e-05 0)
(0.00138591 1.66563e-05 0)
(0.00138418 1.90993e-05 0)
(0.0013822 2.18305e-05 0)
(0.00137994 2.48895e-05 0)
(0.00137735 2.83205e-05 0)
(0.0013744 3.21722e-05 0)
(0.00137104 3.64986e-05 0)
(0.00136722 4.13597e-05 0)
(0.00136286 4.68211e-05 0)
(0.00135791 5.29557e-05 0)
(0.00135228 5.98428e-05 0)
(0.00134587 6.75697e-05 0)
(0.0013386 7.62299e-05 0)
(0.00133032 8.59269e-05 0)
(0.00132091 9.6766e-05 0)
(0.00131022 0.00010887 0)
(0.00129807 0.000122346 0)
(0.00128424 0.000137342 0)
(0.00126856 0.000153941 0)
(0.00125068 0.000172338 0)
(0.00123048 0.000192528 0)
(0.00120739 0.000214804 0)
(0.00118141 0.000238948 0)
(0.00115169 0.000265445 0)
(0.00111839 0.00029368 0)
(0.00108039 0.000324426 0)
(0.00103792 0.000356503 0)
(0.000989872 0.000390936 0)
(0.000936187 0.000426047 0)
(0.000876409 0.000462723 0)
(0.000809741 0.000499226 0)
(0.000736701 0.000535738 0)
(0.00065642 0.000570696 0)
(0.0005697 0.00060363 0)
(0.000476322 0.000633157 0)
(0.000377306 0.000658463 0)
(0.000273261 0.000678415 0)
(0.00016555 0.000692262 0)
(5.54356e-05 0.000699337 0)
(0.00139488 5.73052e-07 0)
(0.0013948 1.72801e-06 0)
(0.00139463 2.90968e-06 0)
(0.00139437 4.13629e-06 0)
(0.00139402 5.42676e-06 0)
(0.00139357 6.80095e-06 0)
(0.00139302 8.27994e-06 0)
(0.00139235 9.88638e-06 0)
(0.00139155 1.16448e-05 0)
(0.00139062 1.35818e-05 0)
(0.00138954 1.57267e-05 0)
(0.00138828 1.81118e-05 0)
(0.00138684 2.07727e-05 0)
(0.00138518 2.37489e-05 0)
(0.00138327 2.70842e-05 0)
(0.0013811 3.08273e-05 0)
(0.00137861 3.50324e-05 0)
(0.00137577 3.97594e-05 0)
(0.00137253 4.50749e-05 0)
(0.00136883 5.10529e-05 0)
(0.00136461 5.77748e-05 0)
(0.00135981 6.53304e-05 0)
(0.00135432 7.38189e-05 0)
(0.00134806 8.33468e-05 0)
(0.00134092 9.40339e-05 0)
(0.00133277 0.000106002 0)
(0.00132344 0.000119396 0)
(0.00131281 0.000134341 0)
(0.00130061 0.000151021 0)
(0.00128672 0.00016953 0)
(0.00127073 0.000190128 0)
(0.00125256 0.000212785 0)
(0.00123157 0.000237945 0)
(0.00120781 0.000265232 0)
(0.0011803 0.000295515 0)
(0.00114923 0.00032765 0)
(0.00111336 0.000363352 0)
(0.00107283 0.00040009 0)
(0.00102656 0.000440847 0)
(0.000974135 0.000481364 0)
(0.000915255 0.000525438 0)
(0.000848779 0.000568281 0)
(0.000775008 0.000612184 0)
(0.000693016 0.000653957 0)
(0.000603424 0.000693852 0)
(0.000506035 0.000729697 0)
(0.000401865 0.00076066 0)
(0.000291641 0.000785159 0)
(0.000176936 0.000802235 0)
(5.92902e-05 0.000810977 0)
(0.00139605 6.10024e-07 0)
(0.00139598 1.83953e-06 0)
(0.00139585 3.09753e-06 0)
(0.00139565 4.40353e-06 0)
(0.00139537 5.77771e-06 0)
(0.00139502 7.24131e-06 0)
(0.00139458 8.81687e-06 0)
(0.00139406 1.05286e-05 0)
(0.00139343 1.24028e-05 0)
(0.0013927 1.44681e-05 0)
(0.00139184 1.6756e-05 0)
(0.00139085 1.93011e-05 0)
(0.0013897 2.21418e-05 0)
(0.00138838 2.53208e-05 0)
(0.00138687 2.88855e-05 0)
(0.00138514 3.28887e-05 0)
(0.00138315 3.73892e-05 0)
(0.00138088 4.24526e-05 0)
(0.00137828 4.81517e-05 0)
(0.0013753 5.45676e-05 0)
(0.00137189 6.17905e-05 0)
(0.00136799 6.99197e-05 0)
(0.00136352 7.90661e-05 0)
(0.00135839 8.93492e-05 0)
(0.0013525 0.000100905 0)
(0.00134575 0.000113871 0)
(0.00133796 0.000128416 0)
(0.00132904 0.000144685 0)
(0.00131869 0.000162896 0)
(0.00130686 0.000183163 0)
(0.00129304 0.000205799 0)
(0.0012773 0.000230788 0)
(0.00125875 0.000258649 0)
(0.00123778 0.000289017 0)
(0.00121281 0.000322834 0)
(0.00118481 0.000359017 0)
(0.00115132 0.000399214 0)
(0.0011138 0.00044123 0)
(0.00106945 0.000487457 0)
(0.00101902 0.00053472 0)
(0.000961516 0.000585243 0)
(0.000894681 0.000636199 0)
(0.000820594 0.000688017 0)
(0.000736387 0.000738399 0)
(0.000643862 0.000786526 0)
(0.000541739 0.000830302 0)
(0.000431613 0.000868266 0)
(0.000313971 0.000898532 0)
(0.000190831 0.000919695 0)
(6.39957e-05 0.000930568 0)
(0.00139728 6.37863e-07 0)
(0.00139723 1.9235e-06 0)
(0.00139714 3.23904e-06 0)
(0.00139699 4.6049e-06 0)
(0.0013968 6.0423e-06 0)
(0.00139655 7.57351e-06 0)
(0.00139624 9.22224e-06 0)
(0.00139586 1.1014e-05 0)
(0.00139541 1.29764e-05 0)
(0.00139489 1.51396e-05 0)
(0.00139427 1.75368e-05 0)
(0.00139356 2.02048e-05 0)
(0.00139273 2.31842e-05 0)
(0.00139178 2.65203e-05 0)
(0.00139068 3.02635e-05 0)
(0.00138942 3.447e-05 0)
(0.00138797 3.92029e-05 0)
(0.0013863 4.45323e-05 0)
(0.00138439 5.05369e-05 0)
(0.00138218 5.73042e-05 0)
(0.00137965 6.49322e-05 0)
(0.00137672 7.35293e-05 0)
(0.00137334 8.32174e-05 0)
(0.00136945 9.41287e-05 0)
(0.00136493 0.000106415 0)
(0.0013597 0.000120231 0)
(0.00135361 0.000135769 0)
(0.00134657 0.000153196 0)
(0.00133829 0.00017277 0)
(0.00132873 0.00019462 0)
(0.00131736 0.000219147 0)
(0.00130431 0.000246291 0)
(0.00128859 0.000276817 0)
(0.00127066 0.000310067 0)
(0.00124884 0.000347735 0)
(0.00122401 0.000387599 0)
(0.00119386 0.000433516 0)
(0.00115923 0.000479881 0)
(0.0011181 0.000534556 0)
(0.00106988 0.000586734 0)
(0.00101462 0.000648145 0)
(0.000949412 0.000706266 0)
(0.000875079 0.000767926 0)
(0.000789474 0.000827183 0)
(0.000693414 0.000884945 0)
(0.000586072 0.000937741 0)
(0.000468673 0.000984004 0)
(0.000341998 0.00102111 0)
(0.000208305 0.00104721 0)
(6.9937e-05 0.00106067 0)
(0.00139856 6.56126e-07 0)
(0.00139853 1.97861e-06 0)
(0.00139848 3.33193e-06 0)
(0.00139839 4.7372e-06 0)
(0.00139828 6.21628e-06 0)
(0.00139813 7.79222e-06 0)
(0.00139795 9.48951e-06 0)
(0.00139773 1.13345e-05 0)
(0.00139747 1.33559e-05 0)
(0.00139716 1.5585e-05 0)
(0.0013968 1.80563e-05 0)
(0.00139638 2.0808e-05 0)
(0.00139589 2.38824e-05 0)
(0.00139532 2.73268e-05 0)
(0.00139466 3.11941e-05 0)
(0.00139389 3.55434e-05 0)
(0.001393 4.04408e-05 0)
(0.00139197 4.59606e-05 0)
(0.00139078 5.21861e-05 0)
(0.00138939 5.92105e-05 0)
(0.00138778 6.71387e-05 0)
(0.00138589 7.60873e-05 0)
(0.00138369 8.6188e-05 0)
(0.0013811 9.75851e-05 0)
(0.00137806 0.000110445 0)
(0.00137449 0.00012494 0)
(0.00137024 0.000141283 0)
(0.00136527 0.000159667 0)
(0.00135925 0.000180381 0)
(0.00135227 0.000203592 0)
(0.00134363 0.00022974 0)
(0.00133377 0.000258833 0)
(0.0013212 0.000291651 0)
(0.00130722 0.000327713 0)
(0.00128873 0.000368551 0)
(0.00126881 0.000412514 0)
(0.00124168 0.000462591 0)
(0.00121273 0.000514986 0)
(0.00117408 0.000574641 0)
(0.00113024 0.000635551 0)
(0.00107856 0.000702612 0)
(0.00101196 0.00077214 0)
(0.00093899 0.000844026 0)
(0.000850967 0.000915653 0)
(0.000752115 0.000985229 0)
(0.000638732 0.0010499 0)
(0.000513248 0.00110695 0)
(0.000375863 0.0011532 0)
(0.000229562 0.00118591 0)
(7.71707e-05 0.00120285 0)
(0.00139986 6.64509e-07 0)
(0.00139985 2.00392e-06 0)
(0.00139984 3.37467e-06 0)
(0.00139982 4.79818e-06 0)
(0.00139979 6.29672e-06 0)
(0.00139975 7.8937e-06 0)
(0.0013997 9.61409e-06 0)
(0.00139965 1.14848e-05 0)
(0.00139957 1.35349e-05 0)
(0.00139949 1.57966e-05 0)
(0.00139939 1.8305e-05 0)
(0.00139926 2.10994e-05 0)
(0.00139912 2.42232e-05 0)
(0.00139894 2.7725e-05 0)
(0.00139873 3.16594e-05 0)
(0.00139848 3.60874e-05 0)
(0.00139817 4.10777e-05 0)
(0.00139781 4.67076e-05 0)
(0.00139736 5.3064e-05 0)
(0.00139683 6.02448e-05 0)
(0.00139617 6.83604e-05 0)
(0.00139537 7.75345e-05 0)
(0.0013944 8.79074e-05 0)
(0.0013932 9.96343e-05 0)
(0.00139171 0.000112895 0)
(0.0013899 0.000127878 0)
(0.00138762 0.000144819 0)
(0.00138485 0.000163934 0)
(0.0013813 0.000185551 0)
(0.00137706 0.00020986 0)
(0.00137145 0.000237393 0)
(0.00136493 0.000268124 0)
(0.00135603 0.00030313 0)
(0.00134596 0.000341549 0)
(0.00133188 0.000386031 0)
(0.0013161 0.000433056 0)
(0.0012942 0.000489715 0)
(0.00126895 0.000545091 0)
(0.00123615 0.000617319 0)
(0.00119519 0.000679288 0)
(0.00114836 0.000766066 0)
(0.00108788 0.000842976 0)
(0.0010156 0.000927058 0)
(0.000927737 0.0010106 0)
(0.000824869 0.00109371 0)
(0.000705258 0.00117213 0)
(0.000569822 0.001242 0)
(0.000419309 0.00129928 0)
(0.000256915 0.00134007 0)
(8.65274e-05 0.00136133 0)
(0.00140117 6.62854e-07 0)
(0.00140118 1.99896e-06 0)
(0.00140121 3.36642e-06 0)
(0.00140125 4.78669e-06 0)
(0.00140131 6.28205e-06 0)
(0.00140138 7.87597e-06 0)
(0.00140147 9.59349e-06 0)
(0.00140157 1.14616e-05 0)
(0.00140169 1.35096e-05 0)
(0.00140183 1.57697e-05 0)
(0.00140199 1.82776e-05 0)
(0.00140217 2.10725e-05 0)
(0.00140237 2.41987e-05 0)
(0.0014026 2.77054e-05 0)
(0.00140284 3.16479e-05 0)
(0.00140311 3.60883e-05 0)
(0.0014034 4.1097e-05 0)
(0.00140371 4.6753e-05 0)
(0.00140404 5.31458e-05 0)
(0.00140437 6.03765e-05 0)
(0.00140471 6.85597e-05 0)
(0.00140503 7.78246e-05 0)
(0.00140533 8.83183e-05 0)
(0.00140557 0.000100205 0)
(0.00140572 0.000113676 0)
(0.00140575 0.000128936 0)
(0.00140555 0.000146236 0)
(0.00140515 0.000165823 0)
(0.00140422 0.000188041 0)
(0.00140303 0.000213147 0)
(0.00140068 0.00024167 0)
(0.00139813 0.000273747 0)
(0.00139309 0.000310329 0)
(0.00138839 0.000351041 0)
(0.00137833 0.00039789 0)
(0.00137033 0.000448909 0)
(0.00135138 0.000508687 0)
(0.00133768 0.000571227 0)
(0.00130548 0.000646253 0)
(0.00127589 0.000720937 0)
(0.00123883 0.000806295 0)
(0.0011696 0.000900736 0)
(0.00110313 0.000999548 0)
(0.00101415 0.0011012 0)
(0.000910272 0.00120211 0)
(0.000783934 0.00129873 0)
(0.000637751 0.00138631 0)
(0.000471883 0.00145909 0)
(0.000290322 0.00151143 0)
(9.79902e-05 0.00153887 0)
(0.00140247 6.51154e-07 0)
(0.0014025 1.96371e-06 0)
(0.00140257 3.30716e-06 0)
(0.00140267 4.70265e-06 0)
(0.00140281 6.17216e-06 0)
(0.00140299 7.73885e-06 0)
(0.00140321 9.42742e-06 0)
(0.00140348 1.12646e-05 0)
(0.00140379 1.32793e-05 0)
(0.00140416 1.55036e-05 0)
(0.00140458 1.79726e-05 0)
(0.00140506 2.07257e-05 0)
(0.00140561 2.38067e-05 0)
(0.00140623 2.72647e-05 0)
(0.00140694 3.11551e-05 0)
(0.00140773 3.55403e-05 0)
(0.00140861 4.04908e-05 0)
(0.0014096 4.60865e-05 0)
(0.0014107 5.2418e-05 0)
(0.00141192 5.95881e-05 0)
(0.00141326 6.77139e-05 0)
(0.00141472 7.69281e-05 0)
(0.00141631 8.73826e-05 0)
(0.00141803 9.92489e-05 0)
(0.00141985 0.000112726 0)
(0.00142178 0.000128032 0)
(0.00142374 0.000145433 0)
(0.00142579 0.000165201 0)
(0.00142763 0.000187701 0)
(0.00142957 0.00021324 0)
(0.00143079 0.000242378 0)
(0.00143216 0.000275332 0)
(0.00143172 0.000313155 0)
(0.00143169 0.000355451 0)
(0.0014277 0.000404842 0)
(0.00142458 0.00045822 0)
(0.00141397 0.000524032 0)
(0.00140365 0.000587733 0)
(0.00138274 0.000681942 0)
(0.0013519 0.000741672 0)
(0.00132441 0.00087449 0)
(0.0012771 0.000976514 0)
(0.00121189 0.00108181 0)
(0.00112607 0.00120058 0)
(0.00101828 0.00132073 0)
(0.000885614 0.00144008 0)
(0.000726836 0.00154862 0)
(0.000541822 0.00164019 0)
(0.000335032 0.00170677 0)
(0.000113398 0.00174204 0)
(0.00140373 6.29556e-07 0)
(0.00140379 1.8986e-06 0)
(0.00140389 3.19761e-06 0)
(0.00140406 4.54709e-06 0)
(0.00140428 5.96837e-06 0)
(0.00140457 7.48394e-06 0)
(0.00140492 9.11782e-06 0)
(0.00140534 1.08959e-05 0)
(0.00140584 1.28466e-05 0)
(0.00140643 1.50009e-05 0)
(0.00140711 1.73933e-05 0)
(0.00140788 2.00621e-05 0)
(0.00140878 2.30503e-05 0)
(0.00140979 2.64062e-05 0)
(0.00141095 3.01843e-05 0)
(0.00141225 3.44459e-05 0)
(0.00141373 3.92611e-05 0)
(0.00141539 4.47089e-05 0)
(0.00141726 5.08796e-05 0)
(0.00141935 5.78761e-05 0)
(0.00142169 6.58158e-05 0)
(0.00142429 7.48329e-05 0)
(0.00142718 8.50814e-05 0)
(0.00143039 9.67373e-05 0)
(0.0014339 0.000110004 0)
(0.00143778 0.000125111 0)
(0.00144194 0.000142331 0)
(0.00144654 0.000161964 0)
(0.00145126 0.000184378 0)
(0.00145657 0.000209955 0)
(0.00146148 0.00023922 0)
(0.00146744 0.000272604 0)
(0.00147154 0.000310956 0)
(0.00147817 0.00035453 0)
(0.00147896 0.000405095 0)
(0.00148704 0.000461644 0)
(0.00147819 0.000529323 0)
(0.0014923 0.000600921 0)
(0.00145621 0.000696102 0)
(0.00149874 0.000778084 0)
(0.00147028 0.000870062 0)
(0.00133675 0.000859555 0)
(0.00130509 0.000989557 0)
(0.00124212 0.00113188 0)
(0.00114975 0.00128075 0)
(0.00102418 0.00143257 0)
(0.000863135 0.00158167 0)
(0.000668685 0.00171741 0)
(0.000444337 0.00182777 0)
(0.000197446 0.00190253 0)
(0.00140494 5.98359e-07 0)
(0.00140502 1.80454e-06 0)
(0.00140516 3.03929e-06 0)
(0.00140539 4.32215e-06 0)
(0.00140569 5.67346e-06 0)
(0.00140608 7.1147e-06 0)
(0.00140656 8.6688e-06 0)
(0.00140713 1.03606e-05 0)
(0.00140781 1.2217e-05 0)
(0.00140861 1.4268e-05 0)
(0.00140953 1.65466e-05 0)
(0.0014106 1.90897e-05 0)
(0.00141182 2.19385e-05 0)
(0.00141322 2.51397e-05 0)
(0.00141481 2.87458e-05 0)
(0.00141662 3.28165e-05 0)
(0.00141866 3.74195e-05 0)
(0.00142098 4.26321e-05 0)
(0.00142359 4.85425e-05 0)
(0.00142654 5.52517e-05 0)
(0.00142986 6.28753e-05 0)
(0.00143358 7.15465e-05 0)
(0.00143776 8.14182e-05 0)
(0.00144243 9.26675e-05 0)
(0.00144763 0.000105498 0)
(0.00145344 0.000120147 0)
(0.00145982 0.000136885 0)
(0.00146696 0.00015604 0)
(0.00147463 0.000177965 0)
(0.00148327 0.000203126 0)
(0.00149213 0.000231963 0)
(0.0015024 0.000265191 0)
(0.00151194 0.000303241 0)
(0.00152387 0.000347432 0)
(0.00153259 0.000397618 0)
(0.00154622 0.000457084 0)
(0.00155034 0.000522341 0)
(0.00156696 0.0006047 0)
(0.00155622 0.000683874 0)
(0.00158612 0.000808564 0)
(0.00163155 0.000884068 0)
(0.00146101 0.000947192 0)
(0.00144047 0.00109439 0)
(0.00138838 0.00125702 0)
(0.00130253 0.00143085 0)
(0.00117849 0.0016087 0)
(0.00100381 0.00179177 0)
(0.000786819 0.00195922 0)
(0.000527639 0.00209384 0)
(0.000235003 0.00218013 0)
(0.00140608 5.58013e-07 0)
(0.00140618 1.68289e-06 0)
(0.00140636 2.83448e-06 0)
(0.00140664 4.03106e-06 0)
(0.00140702 5.29167e-06 0)
(0.0014075 6.63641e-06 0)
(0.0014081 8.08677e-06 0)
(0.00140882 9.666e-06 0)
(0.00140967 1.13995e-05 0)
(0.00141067 1.33153e-05 0)
(0.00141183 1.54445e-05 0)
(0.00141316 1.78217e-05 0)
(0.0014147 2.04861e-05 0)
(0.00141646 2.34817e-05 0)
(0.00141846 2.68582e-05 0)
(0.00142075 3.06723e-05 0)
(0.00142334 3.49885e-05 0)
(0.00142628 3.98806e-05 0)
(0.00142961 4.54329e-05 0)
(0.00143338 5.17427e-05 0)
(0.00143764 5.89215e-05 0)
(0.00144245 6.70984e-05 0)
(0.00144786 7.64223e-05 0)
(0.00145396 8.70674e-05 0)
(0.00146081 9.92329e-05 0)
(0.00146851 0.000113158 0)
(0.00147709 0.00012911 0)
(0.00148676 0.000147426 0)
(0.00149737 0.000168457 0)
(0.00150944 0.000192705 0)
(0.00152225 0.000220601 0)
(0.00153723 0.000252956 0)
(0.00155207 0.000290189 0)
(0.00157058 0.000333774 0)
(0.00158632 0.000383728 0)
(0.00160916 0.000443176 0)
(0.00162273 0.00051013 0)
(0.00165047 0.000592876 0)
(0.00165583 0.000680177 0)
(0.00168465 0.000801078 0)
(0.00177928 0.000883824 0)
(0.00160354 0.00100119 0)
(0.00159922 0.00116597 0)
(0.0015631 0.0013533 0)
(0.00149052 0.00155917 0)
(0.00138228 0.00176155 0)
(0.00118447 0.00200216 0)
(0.000944217 0.00222193 0)
(0.000641762 0.00239964 0)
(0.000286888 0.00251207 0)
(0.00140714 5.09108e-07 0)
(0.00140724 1.53542e-06 0)
(0.00140746 2.58616e-06 0)
(0.00140779 3.67806e-06 0)
(0.00140824 4.82854e-06 0)
(0.00140881 6.056e-06 0)
(0.00140952 7.38013e-06 0)
(0.00141037 8.82226e-06 0)
(0.00141139 1.04057e-05 0)
(0.00141257 1.21562e-05 0)
(0.00141395 1.41023e-05 0)
(0.00141554 1.62761e-05 0)
(0.00141736 1.87134e-05 0)
(0.00141946 2.14551e-05 0)
(0.00142185 2.45472e-05 0)
(0.00142458 2.80422e-05 0)
(0.00142768 3.20001e-05 0)
(0.00143121 3.64898e-05 0)
(0.00143521 4.159e-05 0)
(0.00143975 4.7392e-05 0)
(0.00144489 5.40007e-05 0)
(0.00145072 6.15384e-05 0)
(0.00145731 7.01462e-05 0)
(0.00146477 7.99909e-05 0)
(0.00147318 9.12627e-05 0)
(0.00148269 0.000104195 0)
(0.00149338 0.000119043 0)
(0.00150548 0.000136149 0)
(0.00151896 0.000155839 0)
(0.00153432 0.000178657 0)
(0.00155112 0.000204957 0)
(0.00157054 0.000235728 0)
(0.00159107 0.000271106 0)
(0.00161546 0.000313217 0)
(0.00163971 0.00036104 0)
(0.00166999 0.000419874 0)
(0.00169692 0.000484441 0)
(0.00173346 0.000569046 0)
(0.00176008 0.000655156 0)
(0.00179975 0.000780983 0)
(0.00191833 0.000864851 0)
(0.00176125 0.00102149 0)
(0.00178071 0.00120372 0)
(0.00176815 0.00141983 0)
(0.00171101 0.00167846 0)
(0.00163913 0.00201198 0)
(0.00144055 0.00231513 0)
(0.00115289 0.00260784 0)
(0.000767227 0.00285354 0)
(0.000297614 0.0030036 0)
(0.00140809 4.52382e-07 0)
(0.00140821 1.36436e-06 0)
(0.00140846 2.29808e-06 0)
(0.00140883 3.26847e-06 0)
(0.00140935 4.29104e-06 0)
(0.00141 5.3822e-06 0)
(0.00141081 6.5595e-06 0)
(0.00141178 7.84199e-06 0)
(0.00141293 9.25049e-06 0)
(0.00141429 1.0808e-05 0)
(0.00141586 1.25401e-05 0)
(0.00141768 1.44756e-05 0)
(0.00141977 1.66466e-05 0)
(0.00142217 1.90898e-05 0)
(0.00142491 2.18466e-05 0)
(0.00142804 2.49644e-05 0)
(0.00143161 2.84976e-05 0)
(0.00143567 3.25082e-05 0)
(0.00144029 3.70681e-05 0)
(0.00144553 4.22603e-05 0)
(0.00145149 4.81808e-05 0)
(0.00145826 5.49418e-05 0)
(0.00146593 6.26733e-05 0)
(0.00147464 7.15299e-05 0)
(0.00148451 8.16883e-05 0)
(0.00149571 9.33684e-05 0)
(0.00150838 0.000106809 0)
(0.00152279 0.000122338 0)
(0.00153899 0.000140265 0)
(0.00155753 0.000161119 0)
(0.00157814 0.000185256 0)
(0.001602 0.000213621 0)
(0.00162794 0.000246461 0)
(0.00165864 0.000285679 0)
(0.00169076 0.000330864 0)
(0.00172999 0.000386224 0)
(0.0017688 0.000449059 0)
(0.00181762 0.000529255 0)
(0.00186335 0.000617418 0)
(0.00191893 0.000737008 0)
(0.00205878 0.000821102 0)
(0.00193272 0.00100651 0)
(0.00198447 0.00120226 0)
(0.00200994 0.00144019 0)
(0.00199814 0.00172436 0)
(0.00198003 0.00213699 0)
(0.00180607 0.00253728 0)
(0.00149994 0.00295429 0)
(0.0010367 0.00332767 0)
(0.000424009 0.00356789 0)
(0.00140892 3.8868e-07 0)
(0.00140905 1.17225e-06 0)
(0.00140933 1.97454e-06 0)
(0.00140974 2.8084e-06 0)
(0.00141031 3.68718e-06 0)
(0.00141104 4.62504e-06 0)
(0.00141193 5.6371e-06 0)
(0.00141301 6.73978e-06 0)
(0.00141429 7.95106e-06 0)
(0.00141579 9.29083e-06 0)
(0.00141754 1.07812e-05 0)
(0.00141956 1.2447e-05 0)
(0.00142188 1.43163e-05 0)
(0.00142455 1.64207e-05 0)
(0.0014276 1.87963e-05 0)
(0.00143109 2.14844e-05 0)
(0.00143507 2.45323e-05 0)
(0.0014396 2.79943e-05 0)
(0.00144476 3.19333e-05 0)
(0.00145063 3.64222e-05 0)
(0.00145731 4.15456e-05 0)
(0.00146491 4.74026e-05 0)
(0.00147355 5.41084e-05 0)
(0.00148338 6.18009e-05 0)
(0.00149456 7.06377e-05 0)
(0.00150729 8.08173e-05 0)
(0.00152174 9.2554e-05 0)
(0.00153824 0.000106149 0)
(0.00155694 0.000121882 0)
(0.00157838 0.000140251 0)
(0.00160253 0.000161568 0)
(0.00163047 0.000186765 0)
(0.00166163 0.000216009 0)
(0.0016981 0.000251256 0)
(0.00173816 0.000291948 0)
(0.00178573 0.000342497 0)
(0.00183698 0.000400092 0)
(0.00189831 0.000474707 0)
(0.00196351 0.000558254 0)
(0.00203973 0.000671335 0)
(0.00219493 0.000748178 0)
(0.00211282 0.000953574 0)
(0.00220532 0.00115692 0)
(0.00228208 0.00141318 0)
(0.0023325 0.00173528 0)
(0.00239491 0.00221242 0)
(0.00228695 0.00273523 0)
(0.00199695 0.00333124 0)
(0.00144721 0.00392405 0)
(0.000616037 0.00434307 0)
(0.00140961 3.18986e-07 0)
(0.00140976 9.62061e-07 0)
(0.00141006 1.62053e-06 0)
(0.00141051 2.30495e-06 0)
(0.00141112 3.0263e-06 0)
(0.00141191 3.79623e-06 0)
(0.00141288 4.62719e-06 0)
(0.00141405 5.53269e-06 0)
(0.00141543 6.52756e-06 0)
(0.00141706 7.62819e-06 0)
(0.00141895 8.85283e-06 0)
(0.00142114 1.0222e-05 0)
(0.00142366 1.17588e-05 0)
(0.00142656 1.34895e-05 0)
(0.00142987 1.5444e-05 0)
(0.00143366 1.76566e-05 0)
(0.00143799 2.01664e-05 0)
(0.00144292 2.30189e-05 0)
(0.00144854 2.62665e-05 0)
(0.00145495 2.997e-05 0)
(0.00146224 3.42003e-05 0)
(0.00147056 3.90409e-05 0)
(0.00148003 4.45886e-05 0)
(0.00149082 5.09604e-05 0)
(0.00150313 5.82901e-05 0)
(0.00151717 6.6747e-05 0)
(0.00153318 7.6515e-05 0)
(0.00155151 8.78539e-05 0)
(0.00157238 0.000101007 0)
(0.00159639 0.000116407 0)
(0.00162368 0.000134342 0)
(0.00165531 0.000155605 0)
(0.00169109 0.000180438 0)
(0.001733 0.000210423 0)