/*--------------------------------*- C++ -*----------------------------------*\
| =========                 |                                                 |
| \\      /  F ield         | foam-extend: Open Source CFD                    |
|  \\    /   O peration     | Version:     4.0                                |
|   \\  /    A nd           | Web:         http://www.foam-extend.org         |
|    \\/     M anipulation  |                                                 |
\*---------------------------------------------------------------------------*/
FoamFile
{
    version     2.0;
    format      ascii;
    class       volScalarField;
    location    "0.0015";
    object      k;
}
// * * * * * * * * * * * * * * * * * * * * * * * * * * * * * * * * * * * * * //

dimensions      [0 2 -2 0 0 0 0];

internalField   nonuniform List<scalar> 
28770
(
1.36197e-07
3.26053e-07
4.87033e-07
6.33028e-07
7.65642e-07
8.87731e-07
9.99896e-07
1.10262e-06
1.19617e-06
1.28071e-06
1.35632e-06
1.42307e-06
1.48098e-06
1.5301e-06
1.57042e-06
1.60198e-06
1.62478e-06
1.63884e-06
1.64422e-06
1.64094e-06
1.6291e-06
1.60878e-06
1.58014e-06
1.54338e-06
1.49875e-06
1.44658e-06
1.38729e-06
1.32139e-06
1.24946e-06
1.17221e-06
1.09044e-06
1.00507e-06
9.17073e-07
8.27541e-07
7.37611e-07
6.4847e-07
5.61322e-07
4.77362e-07
3.9775e-07
3.23575e-07
2.55826e-07
1.95358e-07
1.42852e-07
9.87762e-08
6.33504e-08
3.65033e-08
1.78324e-08
6.54454e-09
1.33675e-09
8.96042e-11
4.05273e-06
9.73736e-06
1.45146e-05
1.88517e-05
2.27966e-05
2.6427e-05
2.97631e-05
3.28186e-05
3.56013e-05
3.81158e-05
4.03648e-05
4.23501e-05
4.40727e-05
4.55334e-05
4.67325e-05
4.76706e-05
4.83483e-05
4.87662e-05
4.89252e-05
4.88271e-05
4.84738e-05
4.78684e-05
4.70153e-05
4.59205e-05
4.45916e-05
4.30386e-05
4.12735e-05
3.93115e-05
3.71703e-05
3.48709e-05
3.24371e-05
2.98958e-05
2.72768e-05
2.4612e-05
2.19356e-05
1.92826e-05
1.66891e-05
1.41906e-05
1.18216e-05
9.61452e-06
7.59881e-06
5.79989e-06
4.23804e-06
2.92726e-06
1.87406e-06
1.07635e-06
5.22211e-07
1.88135e-07
3.56275e-08
1.38216e-09
2.68509e-05
6.7391e-05
0.000100554
0.000130378
0.000157538
0.000182524
0.000205492
0.000226532
0.000245696
0.000263013
0.000278501
0.000292171
0.000304031
0.000314084
0.000322335
0.000328786
0.000333442
0.000336305
0.000337384
0.000336688
0.000334234
0.00033004
0.000324138
0.000316568
0.000307385
0.000296654
0.000284461
0.00027091
0.000256123
0.000240245
0.000223441
0.000205896
0.000187816
0.000169422
0.000150949
0.000132641
0.000114745
9.75064e-05
8.11642e-05
6.5942e-05
5.20433e-05
3.96438e-05
2.88839e-05
1.98611e-05
1.26214e-05
7.15239e-06
3.37686e-06
1.14451e-06
1.91279e-07
6.76958e-09
8.91787e-05
0.000235284
0.00035444
0.000459807
0.000555274
0.000642907
0.00072343
0.000797193
0.000864378
0.000925088
0.000979382
0.0010273
0.00106885
0.00110407
0.00113295
0.00115551
0.00117176
0.00118172
0.00118541
0.00118286
0.00117413
0.00115928
0.00113843
0.00111172
0.00107933
0.00104151
0.000998543
0.0009508
0.000898714
0.000842792
0.000783616
0.000721841
0.000658189
0.000593441
0.000528424
0.000463996
0.00040103
0.000340392
0.000282921
0.000229406
0.000180567
0.000137026
9.92846e-05
6.76976e-05
4.24465e-05
2.35206e-05
1.06899e-05
3.41153e-06
5.33857e-07
1.84382e-08
0.000210475
0.000576779
0.000880954
0.00114706
0.00138615
0.0016045
0.00180469
0.0019879
0.0021547
0.00230538
0.0024401
0.00255896
0.00266201
0.00274928
0.00282081
0.00287661
0.0029167
0.00294114
0.00294997
0.00294327
0.00292119
0.00288388
0.00283162
0.00276475
0.00268375
0.0025892
0.00248185
0.00236259
0.00223251
0.00209288
0.00194515
0.00179095
0.0016321
0.00147053
0.00130833
0.00114762
0.000990609
0.000839445
0.000696232
0.000562951
0.000441412
0.000333198
0.000239607
0.000161587
9.96783e-05
5.39261e-05
2.37022e-05
7.26922e-06
1.10343e-06
3.77469e-08
0.000408199
0.00114745
0.00177685
0.00232677
0.00281752
0.00326289
0.00366962
0.00404101
0.00437872
0.00468356
0.00495596
0.00519615
0.00540427
0.0055804
0.0057246
0.0058369
0.00591736
0.00596606
0.0059831
0.00596864
0.00592294
0.00584635
0.00573941
0.00560281
0.0054375
0.00524468
0.00502583
0.00478281
0.00451781
0.00423342
0.00393258
0.00361864
0.00329527
0.00296646
0.00263642
0.00230954
0.00199028
0.00168307
0.0013922
0.00112174
0.000875458
0.000656665
0.000468144
0.000311984
0.000189386
0.000100341
4.30255e-05
1.28816e-05
1.92562e-06
6.55605e-08
0.000697063
0.00199247
0.00312232
0.00411486
0.00499792
0.00579493
0.00651945
0.00717891
0.00777728
0.00831662
0.00879807
0.00922222
0.00958942
0.00989986
0.0101537
0.0103509
0.0104918
0.0105763
0.0106047
0.0105772
0.0104943
0.0103567
0.0101651
0.00992093
0.00962577
0.00928174
0.00889152
0.00845835
0.00798616
0.00747954
0.00694376
0.00638476
0.00580912
0.00522396
0.00463683
0.00405557
0.00348817
0.00294258
0.00242652
0.00194738
0.00151198
0.00112646
0.000796006
0.000524493
0.00031392
0.000163606
6.89573e-05
2.03447e-05
3.01515e-06
1.02371e-07
0.00108811
0.00314509
0.00497649
0.00659948
0.00804427
0.00934365
0.0105199
0.0115866
0.0125518
0.01342
0.0141938
0.0148746
0.0154633
0.0159604
0.0163661
0.0166806
0.0169042
0.0170371
0.0170795
0.0170318
0.0168949
0.0166696
0.0163574
0.0159603
0.015481
0.0149227
0.0142899
0.0135878
0.0128227
0.0120021
0.0111344
0.0102294
0.00929784
0.00835119
0.00740182
0.00646252
0.00554637
0.00466638
0.00383524
0.00306508
0.00236723
0.00175191
0.00122774
0.000800871
0.000473793
0.000243878
0.000101585
2.96936e-05
4.37737e-06
1.48348e-07
0.00158817
0.00462551
0.00737562
0.00983669
0.0120344
0.014008
0.0157889
0.0173984
0.0188504
0.0201532
0.021312
0.0223298
0.0232084
0.0239491
0.0245523
0.0250188
0.0253487
0.0255425
0.0256006
0.0255236
0.0253126
0.024969
0.0244949
0.0238933
0.0231681
0.0223244
0.0213686
0.0203087
0.0191542
0.0179163
0.016608
0.0152439
0.0138403
0.0124147
0.010986
0.00957365
0.00819767
0.00687793
0.00563384
0.00448396
0.00344555
0.0025342
0.00176288
0.00114024
0.000668342
0.000340856
0.000140822
4.09113e-05
6.01016e-06
2.03421e-07
0.00219965
0.00644034
0.0103321
0.0138481
0.0170022
0.0198359
0.0223878
0.0246876
0.0267561
0.0286072
0.0302499
0.0316897
0.0329302
0.0339738
0.0348219
0.0354754
0.0359351
0.0362016
0.0362755
0.0361579
0.0358501
0.035354
0.0346727
0.0338104
0.0327725
0.0315663
0.0302009
0.0286875
0.0270399
0.0252739
0.0234083
0.0214641
0.0194645
0.0174352
0.0154031
0.0133966
0.0114446
0.00957586
0.00781838
0.00619871
0.00474137
0.00346822
0.00239731
0.00153991
0.000896087
0.000453885
0.00018644
5.39371e-05
7.90496e-06
2.67332e-07
0.00292019
0.00858157
0.0138332
0.0186189
0.022935
0.0268189
0.0303138
0.0334569
0.0362768
0.0387936
0.0410215
0.0429697
0.0446447
0.0460505
0.0471899
0.0480647
0.0486763
0.0490257
0.0491139
0.0489424
0.0485128
0.047828
0.046892
0.0457102
0.0442902
0.0426416
0.040777
0.0387116
0.0364641
0.0340565
0.0315142
0.0288662
0.0261449
0.0233853
0.020625
0.0179032
0.01526
0.0127352
0.0103672
0.00819185
0.0062414
0.00454427
0.00312408
0.00199565
0.00115491
0.000582096
0.000238149
6.86952e-05
1.0049e-05
3.39523e-07
0.0037429
0.0110268
0.0178417
0.0241
0.0297744
0.0348934
0.0395005
0.0436386
0.0473433
0.0506421
0.053555
0.0560962
0.0582757
0.0601004
0.061575
0.0627028
0.0634859
0.0639263
0.0640253
0.063785
0.0632078
0.0622971
0.0610583
0.0594983
0.057627
0.0554571
0.0530047
0.0502902
0.047338
0.0441772
0.0408417
0.0373698
0.0338046
0.0301929
0.0265849
0.023033
0.0195909
0.0163113
0.0132448
0.0104371
0.00792789
0.00575049
0.00393431
0.00250181
0.00144216
0.000724694
0.000295868
8.52168e-05
1.24491e-05
4.19945e-07
0.00465663
0.0137403
0.0222978
0.0302093
0.0374192
0.0439426
0.049819
0.0550941
0.0598095
0.0639996
0.0676911
0.070904
0.0736528
0.0759481
0.0777973
0.0792055
0.0801766
0.0807134
0.0808181
0.0804934
0.0797425
0.0785698
0.0769818
0.0749877
0.0725996
0.0698336
0.0667104
0.0632558
0.0595011
0.0554836
0.0512469
0.0468403
0.0423195
0.0377448
0.0331814
0.0286971
0.0243612
0.020242
0.0164035
0.0129019
0.00978176
0.00707593
0.00481843
0.00305112
0.0017543
0.00088094
0.000359889
0.000103764
1.51699e-05
5.1228e-07
0.00564616
0.0166734
0.02712
0.0368328
0.0457262
0.0537988
0.0610805
0.0676169
0.0734538
0.0786319
0.0831844
0.0871378
0.090512
0.093322
0.0955786
0.0972898
0.0984611
0.099097
0.0992008
0.098776
0.0978269
0.0963588
0.0943799
0.0919013
0.0889381
0.08551
0.0816428
0.0773683
0.0727258
0.0677617
0.0625304
0.0570941
0.0515223
0.0458911
0.0402822
0.0347811
0.0294749
0.0244496
0.0197852
0.0155492
0.0117864
0.00851374
0.00576929
0.00363772
0.00208928
0.00105147
0.000431301
0.000124824
1.82492e-05
6.13056e-07
0.00669295
0.0197667
0.0322085
0.0438314
0.0545207
0.0642536
0.0730475
0.0809443
0.087992
0.0942362
0.0997165
0.104466
0.10851
0.111869
0.114558
0.116588
0.117967
0.118702
0.118798
0.118258
0.117089
0.115297
0.112893
0.109888
0.106302
0.102158
0.0974874
0.0923292
0.0867307
0.0807488
0.0744498
0.0679097
0.0612135
0.0544544
0.0477323
0.0411519
0.0348202
0.0288433
0.0233212
0.0183382
0.0139349
0.0100492
0.00676931
0.0042562
0.00245342
0.00124567
0.000516936
0.000151603
2.23268e-05
7.16463e-07
0.00777559
0.0229525
0.0374491
0.0510468
0.0636018
0.0750648
0.0854418
0.0947666
0.103087
0.110452
0.116906
0.122489
0.127233
0.131164
0.134301
0.136659
0.138249
0.139081
0.139161
0.138494
0.137088
0.134951
0.132094
0.128533
0.12429
0.119392
0.113878
0.107792
0.101191
0.0941432
0.086728
0.0790358
0.0711682
0.0632365
0.0553596
0.0476624
0.0402723
0.0333177
0.0269251
0.021218
0.0180538
0.0122746
0.00832065
0.00530264
0.00315433
0.00168389
0.000753811
0.00025192
4.83962e-05
2.1002e-06
0.00887035
0.0261567
0.042718
0.0583068
0.0727452
0.0859637
0.0979552
0.108739
0.118362
0.126874
0.134325
0.14076
0.146218
0.150729
0.154318
0.157005
0.158805
0.159729
0.159786
0.158983
0.157329
0.154833
0.151509
0.147376
0.142457
0.136788
0.130408
0.123374
0.11575
0.107616
0.0990643
0.090201
0.0811448
0.0720255
0.0629813
0.0541565
0.0456982
0.0377544
0.0304716
0.0239732
0.0201618
0.0137686
0.00919757
0.00584092
0.00350286
0.00189157
0.000854242
0.000287532
5.50315e-05
2.20723e-06
0.00995189
0.0293017
0.0478851
0.0654279
0.0817201
0.0966762
0.110266
0.122501
0.13342
0.143075
0.151519
0.158802
0.164967
0.170053
0.174089
0.177099
0.179101
0.180111
0.180138
0.179193
0.177287
0.174429
0.170636
0.16593
0.160337
0.153897
0.146657
0.138679
0.130038
0.120826
0.111148
0.101126
0.0908958
0.0806053
0.070412
0.0604784
0.0509686
0.0420444
0.0338638
0.0265448
0.022109
0.0150617
0.00999061
0.00635319
0.00383774
0.00208065
0.000939667
0.000318974
6.19562e-05
2.51819e-06
0.0109938
0.0323095
0.0528207
0.07223
0.0903002
0.10692
0.122046
0.135684
0.147857
0.158618
0.168024
0.176127
0.182976
0.188615
0.193079
0.196397
0.198591
0.199678
0.199672
0.198585
0.196429
0.193217
0.188967
0.183703
0.177456
0.170268
0.162195
0.153305
0.143683
0.133431
0.122669
0.111533
0.100175
0.0887622
0.0774695
0.0664776
0.0559663
0.0461102
0.0370781
0.0289995
0.0240519
0.0163866
0.0108696
0.00693957
0.00420944
0.00209643
0.000914113
0.000306104
5.60098e-05
1.72321e-06
0.0119695
0.035104
0.0573992
0.0785381
0.09826
0.116426
0.132988
0.147934
0.161283
0.173082
0.183388
0.19226
0.19975
0.205906
0.210768
0.214371
0.216739
0.217894
0.217853
0.216628
0.214234
0.210686
0.206005
0.200215
0.193353
0.185464
0.176609
0.166865
0.156325
0.145102
0.133327
0.121153
0.108746
0.0962905
0.0839784
0.0720074
0.060573
0.0498635
0.0400611
0.0313158
0.0259162
0.0177628
0.011817
0.00757535
0.00460229
0.00228567
0.00101613
0.000343264
6.4393e-05
2.11718e-06
0.0128527
0.0376136
0.0615038
0.0841901
0.105392
0.124951
0.142798
0.158919
0.173331
0.186069
0.19719
0.206756
0.214823
0.221445
0.226665
0.230522
0.233044
0.234257
0.234179
0.232826
0.230213
0.226359
0.221284
0.215017
0.207597
0.199073
0.189512
0.178997
0.167629
0.15553
0.142845
0.129737
0.116389
0.103
0.0897761
0.0769317
0.0646767
0.0532127
0.0427347
0.033409
0.027581
0.0190571
0.0127101
0.00816769
0.00496947
0.00246709
0.00110249
0.000372282
7.1503e-05
2.38354e-06
0.0136186
0.0397735
0.0650295
0.0890415
0.111513
0.132268
0.151217
0.16835
0.183676
0.197226
0.20905
0.219215
0.22778
0.234802
0.240328
0.244401
0.247054
0.248313
0.248199
0.246732
0.243927
0.239804
0.234386
0.227705
0.219802
0.210729
0.200558
0.189376
0.177294
0.164442
0.150973
0.137064
0.122908
0.108718
0.0947159
0.0811267
0.0681738
0.0560703
0.0450212
0.0352005
0.0289766
0.0201667
0.0134659
0.00866568
0.00528365
0.0026313
0.00118695
0.000407324
7.96984e-05
2.58021e-06
0.014245
0.041528
0.0678874
0.0929695
0.116466
0.138189
0.158036
0.175979
0.192041
0.206249
0.218647
0.229297
0.238264
0.245609
0.251381
0.255627
0.258381
0.259674
0.259527
0.257963
0.254998
0.250654
0.244955
0.237935
0.229637
0.220116
0.209448
0.197726
0.185064
0.171601
0.157499
0.142941
0.128135
0.1133
0.0986718
0.0844853
0.0709742
0.0583604
0.0468566
0.0366418
0.0300841
0.0210706
0.01408
0.00907186
0.00554707
0.00278336
0.00126569
0.000442676
7.8763e-05
4.71487e-06
0.0147135
0.0428324
0.0700077
0.0958793
0.120132
0.142568
0.163077
0.18162
0.198215
0.212903
0.225726
0.236735
0.245998
0.253577
0.259527
0.263896
0.266721
0.268034
0.267859
0.266219
0.263132
0.25862
0.25271
0.245436
0.236843
0.22699
0.215953
0.20383
0.19074
0.176826
0.162256
0.147222
0.131937
0.116631
0.101545
0.0869233
0.0730065
0.0600234
0.048192
0.0376972
0.0308821
0.0217719
0.0145647
0.00939408
0.00575926
0.00290912
0.00134219
0.000481961
9.08909e-05
5.83087e-06
0.0150135
0.0436656
0.0713617
0.0977352
0.122466
0.145353
0.16628
0.185202
0.202128
0.217111
0.230198
0.241433
0.250878
0.258601
0.264659
0.269101
0.271965
0.273286
0.273087
0.271394
0.268225
0.263603
0.257556
0.250118
0.241335
0.231269
0.219998
0.20762
0.194259
0.180061
0.165197
0.149865
0.134281
0.11868
0.10331
0.0884187
0.0742522
0.061043
0.0490131
0.0383517
0.0313439
0.0222535
0.0149088
0.0096226
0.0059069
0.00299324
0.00140466
0.000525754
0.000146348
1.40845e-05
0.0151269
0.0439815
0.0718749
0.0984359
0.123343
0.146393
0.167469
0.186524
0.203565
0.218643
0.231816
0.243125
0.252629
0.260395
0.266483
0.270941
0.27381
0.275124
0.274909
0.273188
0.269981
0.265312
0.259209
0.251706
0.24285
0.232704
0.221345
0.208874
0.195415
0.181115
0.166148
0.150712
0.135026
0.119326
0.103861
0.0888812
0.074634
0.0613534
0.0492628
0.0385521
0.0314171
0.0224663
0.0150653
0.00972568
0.0059732
0.00303349
0.00143278
0.000551407
0.000166593
2.61604e-05
0.0150533
0.0437779
0.0715416
0.0979712
0.122747
0.145668
0.16662
0.185556
0.202487
0.217468
0.230549
0.241774
0.251207
0.258913
0.264951
0.269369
0.272209
0.273503
0.273278
0.271556
0.268358
0.263707
0.25763
0.250164
0.241353
0.23126
0.219964
0.207563
0.194182
0.179966
0.165089
0.149747
0.134157
0.118554
0.103186
0.0882999
0.0741421
0.060945
0.0489306
0.0382869
0.0310911
0.0223699
0.0149971
0.00967866
0.00594012
0.00300366
0.00141111
0.000533936
0.000149666
1.60547e-05
0.0147942
0.0430582
0.0703657
0.0963452
0.120683
0.143184
0.16374
0.182309
0.198912
0.213596
0.226407
0.237397
0.246632
0.254177
0.260087
0.264411
0.267188
0.268449
0.26822
0.266524
0.26338
0.258811
0.252844
0.245514
0.236866
0.22696
0.215874
0.203706
0.190576
0.176629
0.162033
0.14698
0.131684
0.116374
0.101292
0.0866813
0.0727822
0.0598229
0.0480212
0.0375622
0.0303993
0.0219762
0.0147162
0.00948925
0.00581362
0.00291576
0.00135069
0.00049078
0.000121598
6.14749e-06
0.0143662
0.0418642
0.0684152
0.0936514
0.11727
0.139084
0.158994
0.176972
0.193044
0.207247
0.219627
0.230247
0.239173
0.246465
0.252178
0.256357
0.259041
0.260258
0.260033
0.258387
0.25534
0.250912
0.245131
0.238029
0.229651
0.220055
0.209316
0.197529
0.18481
0.171299
0.157158
0.142573
0.127751
0.112912
0.0982898
0.0841203
0.0706356
0.0580567
0.046596
0.0364358
0.0293891
0.0213437
0.0142765
0.00919426
0.00561702
0.00279017
0.00127519
0.000449033
0.000104963
4.79864e-06
0.0137724
0.0402014
0.0657001
0.0899058
0.112529
0.133397
0.152423
0.169597
0.184936
0.198479
0.210281
0.220405
0.228914
0.235869
0.241318
0.245306
0.247868
0.24903
0.248816
0.247246
0.244336
0.240107
0.234584
0.2278
0.219795
0.210627
0.200366
0.189103
0.176949
0.164036
0.15052
0.136576
0.122402
0.108207
0.094214
0.0806473
0.0677292
0.0556714
0.0446784
0.0349294
0.0280877
0.0205063
0.0137079
0.00881596
0.00536808
0.00264027
0.00119451
0.000412512
8.13903e-05
2.71075e-06
0.0130334
0.0381174
0.062293
0.0852063
0.106586
0.126274
0.144206
0.160375
0.174804
0.187534
0.198625
0.20814
0.216141
0.222682
0.227811
0.231567
0.233982
0.235081
0.234885
0.233411
0.230675
0.226696
0.221497
0.215109
0.207571
0.198935
0.189269
0.178658
0.167205
0.155036
0.142295
0.129148
0.115778
0.102383
0.0891707
0.0763533
0.06414
0.0527315
0.0423224
0.0330867
0.0265176
0.0194748
0.0130106
0.00835604
0.00507356
0.00247479
0.00110988
0.000376141
7.12337e-05
2.38311e-06
0.0121705
0.035666
0.0582799
0.0796708
0.0995882
0.117895
0.134551
0.149549
0.162916
0.174705
0.184976
0.193789
0.201203
0.207269
0.212029
0.215519
0.217767
0.218796
0.218623
0.217263
0.214732
0.211046
0.206227
0.200302
0.193309
0.185295
0.176324
0.166473
0.15584
0.144538
0.132701
0.120483
0.108051
0.0955896
0.0832899
0.0713486
0.0599607
0.0493134
0.0395887
0.0309483
0.0247051
0.0182454
0.0121729
0.00780404
0.00472955
0.00229691
0.00102397
0.000347427
6.41847e-05
2.06991e-06
0.0112081
0.0329107
0.0537632
0.0734408
0.0917178
0.108486
0.12371
0.137402
0.149594
0.160342
0.169707
0.177747
0.184515
0.190056
0.194411
0.197608
0.199673
0.200625
0.200479
0.199249
0.196946
0.193588
0.189191
0.183783
0.177397
0.170076
0.161879
0.152875
0.143153
0.132817
0.121989
0.110805
0.0994208
0.0880008
0.0767206
0.0657596
0.0552969
0.0455055
0.0365536
0.0285889
0.0227532
0.01687
0.0112227
0.00717224
0.00434277
0.00210745
0.000921822
0.000310796
5.72174e-05
1.74241e-06
0.0101725
0.0299228
0.0488591
0.0666776
0.0831802
0.0982868
0.111975
0.124265
0.135201
0.14484
0.153241
0.160458
0.166538
0.171523
0.175445
0.178331
0.180202
0.181073
0.180956
0.179864
0.177807
0.174799
0.170856
0.166002
0.160266
0.153689
0.146321
0.138226
0.129483
0.120184
0.110437
0.100366
0.0901075
0.0798091
0.0696278
0.059725
0.0502633
0.0414013
0.0332957
0.0260866
0.0207698
0.015468
0.0102689
0.0065334
0.00394839
0.00213549
0.000959913
0.000328603
6.48608e-05
2.71191e-06
0.00909084
0.026779
0.0436939
0.0595567
0.0742028
0.0875688
0.0996564
0.110493
0.12013
0.128624
0.13603
0.142398
0.14777
0.15218
0.155657
0.158221
0.15989
0.160676
0.160589
0.15964
0.157836
0.155191
0.151718
0.147438
0.142378
0.136572
0.130065
0.122915
0.115188
0.106967
0.0983466
0.0894338
0.0803484
0.0712203
0.0621872
0.0533919
0.0449797
0.0370954
0.0298884
0.0235079
0.0187767
0.0141522
0.00941546
0.00597241
0.00359072
0.00194419
0.000879217
0.000296509
5.69011e-05
2.27872e-06
0.00798986
0.0235584
0.0383989
0.0522606
0.0650143
0.0766174
0.0870843
0.0964566
0.104788
0.112134
0.118543
0.12406
0.128721
0.132554
0.135581
0.137821
0.139285
0.139984
0.139926
0.139118
0.137569
0.135288
0.132287
0.128585
0.124205
0.119176
0.113539
0.10734
0.10064
0.0935083
0.0860258
0.0782851
0.0703885
0.0624476
0.0545809
0.046912
0.0395675
0.0326761
0.0263754
0.020817
0.0165371
0.0127895
0.00860129
0.00546012
0.00326025
0.00175141
0.000787695
0.000263688
5.0205e-05
2.02166e-06
0.0068957
0.0203406
0.0331072
0.044977
0.0558502
0.0657116
0.0745865
0.0825247
0.0895802
0.0958042
0.101241
0.105928
0.109893
0.11316
0.115747
0.117666
0.118927
0.119538
0.119505
0.118834
0.117532
0.115605
0.113067
0.10993
0.106215
0.101949
0.0971633
0.0918997
0.0862077
0.0801463
0.0737837
0.0671974
0.0604733
0.053705
0.0469921
0.0404387
0.0341515
0.0282389
0.0228159
0.018002
0.0137023
0.00984054
0.00662296
0.00416056
0.00240171
0.00122132
0.000506638
0.000148498
2.18293e-05
6.9952e-07
0.00583296
0.0172021
0.0279467
0.0378832
0.0469414
0.0551274
0.0624795
0.0690503
0.0748918
0.0800496
0.0845615
0.0884572
0.0917596
0.0944861
0.0966497
0.0982601
0.0993245
0.0998482
0.0998357
0.0992919
0.0982218
0.096632
0.0945319
0.0919337
0.0888541
0.0853147
0.0813428
0.0769724
0.0722445
0.0672076
0.0619179
0.0564389
0.050841
0.0452009
0.0396001
0.0341237
0.0288583
0.0238887
0.0192996
0.0151874
0.0115424
0.00832598
0.00564603
0.00356458
0.00205154
0.00103359
0.000423922
0.000122612
1.79181e-05
6.02599e-07
0.00482403
0.0142136
0.023036
0.0311436
0.0384959
0.0451159
0.0510509
0.0563534
0.0610706
0.0652414
0.068896
0.0720574
0.0747427
0.0769645
0.078732
0.0800518
0.0809291
0.0813675
0.0813703
0.0809413
0.0800843
0.0788049
0.0771106
0.0750115
0.0725212
0.0696573
0.0664419
0.0629026
0.0590725
0.0549905
0.0507017
0.0462569
0.0417123
0.0371292
0.0325727
0.0281107
0.0238126
0.0197446
0.0159669
0.0125499
0.00951905
0.00688505
0.00469386
0.00297385
0.00171125
0.000859544
0.000350965
0.000101063
1.47424e-05
4.96582e-07
0.00388851
0.0114375
0.0184802
0.0249042
0.0306973
0.0358952
0.0405491
0.0447079
0.0484123
0.0516933
0.0545739
0.0570709
0.0591962
0.0609584
0.0623636
0.0634164
0.06412
0.0644771
0.0644899
0.0641612
0.0634942
0.0624931
0.061164
0.0595151
0.057557
0.0553038
0.052773
0.0499862
0.0469696
0.0437535
0.0403731
0.036868
0.033282
0.0296625
0.0260597
0.0225264
0.0191161
0.0158813
0.0128673
0.0101234
0.00768313
0.00557002
0.00381125
0.00242258
0.00139649
0.000701611
0.000286249
8.2337e-05
1.20041e-05
4.04314e-07
0.00304275
0.00892595
0.0143665
0.0192866
0.0236972
0.0276429
0.0311734
0.0343315
0.0371495
0.0396508
0.0418516
0.0437633
0.0453938
0.0467484
0.0478311
0.0486447
0.0491914
0.0494729
0.0494908
0.0492472
0.0487444
0.0479858
0.046976
0.0457215
0.0442306
0.0425138
0.0405849
0.0384602
0.0361596
0.0337062
0.0311267
0.028451
0.025712
0.0229454
0.020189
0.0174818
0.0148639
0.0123752
0.0100506
0.0079253
0.00602859
0.00438384
0.00301101
0.00192129
0.00111108
0.000559498
0.000228588
6.5797e-05
9.59507e-06
3.23164e-07
0.00229901
0.00671807
0.0107599
0.01438
0.017606
0.0204856
0.0230633
0.0253732
0.0274392
0.0292774
0.0308984
0.0323092
0.0335148
0.0345183
0.035322
0.0359277
0.0363366
0.0365501
0.0365691
0.0363951
0.0360299
0.0354762
0.0347372
0.0338179
0.0327244
0.0314647
0.0300487
0.0284887
0.0267991
0.0249969
0.0231017
0.0211351
0.0191212
0.0170859
0.0150564
0.013061
0.0111282
0.00928682
0.00756304
0.00598185
0.00456566
0.00333334
0.00230011
0.00147489
0.000856944
0.000433276
0.000177569
5.12135e-05
7.47485e-06
2.51771e-07
0.00166524
0.0048394
0.00770283
0.0102403
0.0124895
0.0144955
0.0162941
0.01791
0.0193593
0.020652
0.0217944
0.0227905
0.023643
0.0243537
0.024924
0.0253548
0.025647
0.0258014
0.0258186
0.0256997
0.0254461
0.0250595
0.0245425
0.0238984
0.0231317
0.022248
0.0212545
0.0201595
0.0189735
0.0177083
0.0163775
0.0149964
0.0135816
0.0121511
0.0107239
0.0093194
0.00795732
0.00665735
0.00543789
0.0043162
0.00330805
0.0024271
0.00168438
0.00108689
0.000635583
0.00032329
0.00013315
3.85319e-05
5.63257e-06
1.89754e-07
0.00114477
0.00330084
0.00521272
0.00688808
0.00836753
0.00968821
0.0108758
0.0119463
0.0129092
0.01377
0.0145321
0.0151976
0.015768
0.016244
0.0166266
0.0169162
0.0171134
0.0172187
0.0172324
0.0171555
0.0169887
0.0167333
0.016391
0.015964
0.0154555
0.0148692
0.0142097
0.0134828
0.0126954
0.0118554
0.0109717
0.0100544
0.00911465
0.00816418
0.00721549
0.00628134
0.00537461
0.00450805
0.00369377
0.00294306
0.00226621
0.00167222
0.00116846
0.000759936
0.000448198
0.000229917
9.53978e-05
2.77526e-05
4.06696e-06
1.37062e-07
0.00073599
0.00209807
0.00328079
0.00430635
0.00521089
0.00602088
0.00675221
0.00741374
0.00801034
0.00854472
0.00901849
0.00943265
0.0097879
0.0100847
0.0103235
0.0105046
0.0106283
0.0106949
0.0107047
0.0106581
0.0105558
0.0103986
0.0101874
0.00992383
0.00960965
0.00924726
0.00883959
0.00839023
0.00790337
0.00738395
0.00683752
0.00627031
0.00568911
0.0051012
0.00451424
0.00393606
0.00337452
0.00283738
0.00233201
0.00186527
0.00144336
0.0010717
0.000754709
0.000495518
0.000295472
0.000153358
6.43362e-05
1.88724e-05
2.77688e-06
9.36472e-08
0.000432649
0.00121257
0.00187327
0.00244185
0.00294463
0.00339719
0.00380763
0.00418007
0.00451663
0.00481848
0.00508632
0.00532063
0.00552171
0.00568984
0.00582521
0.005928
0.00599838
0.00603654
0.00604265
0.00601697
0.00595983
0.0058717
0.0057532
0.00560514
0.00542859
0.00522489
0.00499571
0.00474306
0.00446933
0.00417727
0.00387003
0.0035511
0.0032243
0.0028937
0.00256359
0.00223835
0.00192236
0.00161994
0.00133519
0.00107188
0.000833432
0.000622762
0.000442231
0.000293507
0.000177394
9.35383e-05
3.98885e-05
1.18603e-05
1.75742e-06
5.934e-08
0.000224024
0.000611919
0.000932113
0.0012073
0.00145228
0.00167414
0.00187613
0.0020598
0.00222598
0.00237511
0.00250749
0.00262333
0.00272277
0.00280595
0.00287296
0.00292389
0.00295883
0.00297787
0.0029811
0.00296865
0.0029407
0.00289746
0.00283926
0.0027665
0.0026797
0.00257954
0.00246684
0.00234259
0.00220797
0.00206434
0.00191324
0.0017564
0.0015957
0.00143312
0.00127077
0.00111081
0.000955373
0.000806569
0.000666396
0.000536696
0.000419109
0.000315025
0.000225538
0.000151392
9.29258e-05
4.99999e-05
2.18385e-05
6.64342e-06
9.97588e-07
3.37697e-08
9.53909e-05
0.000250766
0.000376516
0.000485442
0.000583284
0.00067233
0.000753576
0.000827518
0.000894434
0.000954494
0.00100781
0.00105447
0.00109453
0.00112805
0.00115505
0.00117559
0.0011897
0.00119741
0.00119877
0.00119382
0.00118264
0.00116532
0.00114199
0.00111281
0.00107799
0.00103781
0.00099259
0.000942739
0.000888727
0.000831102
0.000770486
0.000707567
0.000643098
0.000577882
0.00051276
0.000448592
0.000386238
0.000326538
0.000270291
0.000218231
0.000171007
0.000129167
9.31296e-05
6.31679e-05
3.93837e-05
2.16899e-05
9.78862e-06
3.09498e-06
4.78e-07
1.62867e-08
2.89107e-05
7.22348e-05
0.000107298
0.000138107
0.000165959
0.000191353
0.000214529
0.000235619
0.000254702
0.000271828
0.000287031
0.000300334
0.000311755
0.000321311
0.000329012
0.00033487
0.000338896
0.0003411
0.000341494
0.000340092
0.000336915
0.000331989
0.000325352
0.00031705
0.000307144
0.000295711
0.000282846
0.000268662
0.000253296
0.000236903
0.00021966
0.000201763
0.000183426
0.000164878
0.000146358
0.00012811
0.000110378
9.34009e-05
7.74054e-05
6.25993e-05
4.91666e-05
3.72608e-05
2.6999e-05
1.8455e-05
1.16524e-05
6.55703e-06
3.07139e-06
1.03012e-06
1.69433e-07
5.88797e-09
4.40378e-06
1.05096e-05
1.55667e-05
2.0045e-05
2.40957e-05
2.7787e-05
3.11546e-05
3.42183e-05
3.69899e-05
3.94769e-05
4.16843e-05
4.36158e-05
4.5274e-05
4.66611e-05
4.7779e-05
4.86293e-05
4.92134e-05
4.95332e-05
4.95899e-05
4.93859e-05
4.89243e-05
4.82088e-05
4.72448e-05
4.60391e-05
4.46006e-05
4.29406e-05
4.10727e-05
3.90137e-05
3.6783e-05
3.44035e-05
3.19007e-05
2.93033e-05
2.66422e-05
2.39508e-05
2.12635e-05
1.8616e-05
1.60436e-05
1.35809e-05
1.12608e-05
9.1133e-06
7.16511e-06
5.43836e-06
3.94985e-06
2.71007e-06
1.7222e-06
9.81057e-07
4.71679e-07
1.67931e-07
3.1166e-08
1.17403e-09
1.49288e-07
3.54118e-07
5.24785e-07
6.75696e-07
8.12126e-07
9.36427e-07
1.04981e-06
1.15295e-06
1.24625e-06
1.32997e-06
1.40427e-06
1.46927e-06
1.52508e-06
1.57175e-06
1.60936e-06
1.63796e-06
1.65759e-06
1.66833e-06
1.67021e-06
1.66331e-06
1.64773e-06
1.6236e-06
1.5911e-06
1.55046e-06
1.50199e-06
1.44605e-06
1.38312e-06
1.31374e-06
1.23859e-06
1.15843e-06
1.07413e-06
9.86635e-07
8.97009e-07
8.06363e-07
7.15867e-07
6.26715e-07
5.40102e-07
4.57192e-07
3.79089e-07
3.06808e-07
2.41242e-07
1.83138e-07
1.33057e-07
9.13498e-08
5.81171e-08
3.31838e-08
1.60498e-08
5.81819e-09
1.16228e-09
7.45115e-11
9.69054e-08
2.31777e-09
1.12072e-10
7.26286e-12
5.45927e-13
3.71928e-14
3.0626e-15
1e-15
1e-15
1e-15
1e-15
1e-15
1e-15
1e-15
3.8107e-15
8.34387e-14
1.76277e-12
3.62749e-11
7.41579e-10
1.70119e-08
1.96655e-06
1.04175e-07
5.36555e-09
2.76167e-10
1.46703e-11
7.38491e-13
7.794e-14
3.4324e-15
1e-15
1e-15
1e-15
1e-15
1e-15
1.93891e-14
4.41313e-13
8.97421e-12
1.82723e-10
3.70617e-09
7.49757e-08
1.48488e-06
5.8596e-07
2.32363e-08
1.1004e-09
5.66377e-11
3.17312e-12
1.32724e-13
1.68936e-14
1.15058e-15
1e-15
1e-15
1e-15
1e-15
1e-15
4.69817e-15
9.79354e-14
1.94736e-12
3.95768e-11
8.0451e-10
1.64564e-08
3.65613e-07
5.8842e-11
9.17213e-10
4.57926e-09
1.25575e-08
2.57069e-08
4.44153e-08
6.86372e-08
9.79491e-08
1.31615e-07
1.68655e-07
2.07924e-07
2.48193e-07
2.88227e-07
3.26862e-07
3.63061e-07
3.95966e-07
4.2493e-07
4.49528e-07
4.69559e-07
4.85037e-07
4.96164e-07
5.03301e-07
5.06931e-07
5.07629e-07
5.06022e-07
5.02764e-07
4.985e-07
4.9386e-07
4.89433e-07
4.85763e-07
4.83346e-07
4.82635e-07
4.84041e-07
4.87944e-07
4.94692e-07
5.0462e-07
5.1804e-07
5.35245e-07
5.56512e-07
5.82089e-07
6.12187e-07
6.46967e-07
6.86519e-07
7.30843e-07
7.7983e-07
8.33242e-07
8.90708e-07
9.51722e-07
1.01567e-06
1.08184e-06
1.14948e-06
1.21782e-06
1.28612e-06
1.35365e-06
1.41973e-06
1.48376e-06
1.54519e-06
1.60354e-06
1.65844e-06
1.70961e-06
1.75685e-06
1.80008e-06
1.83927e-06
1.8745e-06
1.90588e-06
1.9336e-06
1.95785e-06
1.97889e-06
1.99694e-06
2.01227e-06
2.02512e-06
2.03572e-06
2.04429e-06
2.05103e-06
2.05611e-06
2.05969e-06
2.06191e-06
2.06286e-06
2.06263e-06
2.06129e-06
2.05887e-06
2.05541e-06
2.05095e-06
2.04549e-06
2.03907e-06
2.03171e-06
2.02344e-06
2.01434e-06
2.00449e-06
1.99401e-06
1.98305e-06
1.9718e-06
1.96048e-06
1.94934e-06
1.93863e-06
1.92862e-06
1.91961e-06
1.91196e-06
1.9061e-06
1.90261e-06
9.27254e-10
2.45965e-08
1.32129e-07
3.68833e-07
7.59842e-07
1.31654e-06
2.03755e-06
2.91022e-06
3.91256e-06
5.01536e-06
6.18448e-06
7.38327e-06
8.57498e-06
9.7249e-06
1.08022e-05
1.17813e-05
1.2643e-05
1.33747e-05
1.39703e-05
1.44304e-05
1.4761e-05
1.49728e-05
1.50803e-05
1.51005e-05
1.50523e-05
1.49549e-05
1.48277e-05
1.46893e-05
1.45574e-05
1.4448e-05
1.4376e-05
1.43548e-05
1.43966e-05
1.45128e-05
1.47137e-05
1.50092e-05
1.54087e-05
1.59208e-05
1.65538e-05
1.73151e-05
1.8211e-05
1.92462e-05
2.04235e-05
2.17429e-05
2.32011e-05
2.4791e-05
2.65016e-05
2.83178e-05
3.02211e-05
3.21906e-05
3.42038e-05
3.62378e-05
3.82704e-05
4.028e-05
4.22466e-05
4.41519e-05
4.59797e-05
4.7716e-05
4.93496e-05
5.08721e-05
5.22778e-05
5.3564e-05
5.47303e-05
5.57785e-05
5.67123e-05
5.75371e-05
5.82589e-05
5.88848e-05
5.94221e-05
5.98783e-05
6.02606e-05
6.0576e-05
6.0831e-05
6.10315e-05
6.11829e-05
6.12896e-05
6.13554e-05
6.13837e-05
6.13769e-05
6.13369e-05
6.12649e-05
6.11621e-05
6.10292e-05
6.08669e-05
6.06757e-05
6.04565e-05
6.02106e-05
5.99397e-05
5.96464e-05
5.93344e-05
5.90082e-05