/*--------------------------------*- C++ -*----------------------------------*\
| =========                 |                                                 |
| \\      /  F ield         | foam-extend: Open Source CFD                    |
|  \\    /   O peration     | Version:     4.0                                |
|   \\  /    A nd           | Web:         http://www.foam-extend.org         |
|    \\/     M anipulation  |                                                 |
\*---------------------------------------------------------------------------*/
FoamFile
{
    version     2.0;
    format      ascii;
    class       volScalarField;
    location    "0.0015";
    object      nut;
}
// * * * * * * * * * * * * * * * * * * * * * * * * * * * * * * * * * * * * * //

dimensions      [0 2 -1 0 0 0 0];

internalField   nonuniform List<scalar> 
28770
(
7.26016e-15
1.73807e-14
2.5962e-14
3.37444e-14
4.08136e-14
4.73217e-14
5.33009e-14
5.87767e-14
6.37636e-14
6.82699e-14
7.23005e-14
7.58585e-14
7.89459e-14
8.15639e-14
8.37135e-14
8.53955e-14
8.66109e-14
8.73609e-14
8.76473e-14
8.74728e-14
8.68415e-14
8.57583e-14
8.42316e-14
8.22718e-14
7.98928e-14
7.71121e-14
7.39517e-14
7.04383e-14
6.66041e-14
6.24862e-14
5.81276e-14
5.35765e-14
4.88859e-14
4.41132e-14
3.93194e-14
3.45676e-14
2.9922e-14
2.54464e-14
2.12026e-14
1.72486e-14
1.36372e-14
1.04138e-14
7.61491e-15
5.2654e-15
3.37698e-15
1.94586e-15
9.50578e-16
3.48866e-16
7.12575e-17
4.77648e-18
1.50099e-12
3.05656e-12
4.49357e-12
5.82786e-12
7.04603e-12
8.16785e-12
9.19886e-12
1.01432e-11
1.10032e-11
1.17804e-11
1.24755e-11
1.3089e-11
1.36214e-11
1.40729e-11
1.44435e-11
1.47334e-11
1.49429e-11
1.5072e-11
1.51212e-11
1.50908e-11
1.49817e-11
1.47945e-11
1.45309e-11
1.41925e-11
1.37818e-11
1.33018e-11
1.27563e-11
1.21499e-11
1.14881e-11
1.07774e-11
1.00252e-11
9.23976e-12
8.4303e-12
7.60671e-12
6.7795e-12
5.95957e-12
5.158e-12
4.3858e-12
3.65362e-12
2.97148e-12
2.34849e-12
1.7925e-12
1.30977e-12
9.04622e-13
5.79043e-13
3.32315e-13
1.60527e-13
5.59568e-14
8.03997e-15
7.68416e-17
3.95242e-11
6.62573e-11
9.26994e-11
1.1869e-10
1.43014e-10
1.65577e-10
1.86373e-10
2.0544e-10
2.22812e-10
2.38513e-10
2.52557e-10
2.64953e-10
2.75708e-10
2.84824e-10
2.92306e-10
2.98156e-10
3.02378e-10
3.04974e-10
3.05952e-10
3.05322e-10
3.03096e-10
2.99292e-10
2.9394e-10
2.87076e-10
2.78747e-10
2.69016e-10
2.57959e-10
2.4567e-10
2.32261e-10
2.17861e-10
2.02622e-10
1.86712e-10
1.70316e-10
1.53636e-10
1.36884e-10
1.2028e-10
1.04051e-10
8.84177e-11
7.35968e-11
5.97908e-11
4.71838e-11
3.59342e-11
2.61676e-11
1.79686e-11
1.13715e-11
6.35179e-12
2.83311e-12
7.61302e-13
5.88596e-14
3.76355e-16
3.90152e-10
5.45921e-10
7.14216e-10
8.90966e-10
1.06327e-09
1.2263e-09
1.37797e-09
1.51764e-09
1.64516e-09
1.76052e-09
1.86374e-09
1.95487e-09
2.03392e-09
2.10091e-09
2.15585e-09
2.19878e-09
2.2297e-09
2.24864e-09
2.25565e-09
2.2508e-09
2.23418e-09
2.20593e-09
2.16625e-09
2.11542e-09
2.05379e-09
1.98181e-09
1.90005e-09
1.8092e-09
1.71008e-09
1.60366e-09
1.49105e-09
1.37349e-09
1.25236e-09
1.12914e-09
1.00539e-09
8.82768e-10
7.62912e-10
6.47467e-10
5.38022e-10
4.36063e-10
3.42934e-10
2.59777e-10
1.8748e-10
1.26615e-10
7.74307e-11
4.0039e-11
1.49983e-11
2.94094e-12
1.70934e-13
1.02507e-15
2.19041e-09
2.69455e-09
3.30559e-09
3.98946e-09
4.6865e-09
5.36476e-09
6.00637e-09
6.60276e-09
7.15004e-09
7.6465e-09
8.09141e-09
8.48443e-09
8.82544e-09
9.11438e-09
9.35124e-09
9.53604e-09
9.66885e-09
9.74976e-09
9.77896e-09
9.75672e-09
9.68345e-09
9.55974e-09
9.38645e-09
9.16476e-09
8.89619e-09
8.58271e-09
8.22676e-09
7.83134e-09
7.40003e-09
6.93704e-09
6.44715e-09
5.93579e-09
5.40892e-09
4.87298e-09
4.3348e-09
3.80144e-09
3.28006e-09
2.77774e-09
2.30128e-09
1.85702e-09
1.45065e-09
1.08696e-09
7.69824e-10
5.0233e-10
2.87908e-10
1.3223e-10
4.12408e-11
6.70119e-12
3.55234e-13
2.09854e-15
8.52216e-09
9.67598e-09
1.1264e-08
1.31485e-08
1.51506e-08
1.71584e-08
1.90977e-08
2.09252e-08
2.26166e-08
2.41591e-08
2.55457e-08
2.67728e-08
2.78385e-08
2.87415e-08
2.94815e-08
3.0058e-08
3.04711e-08
3.0721e-08
3.0808e-08
3.0733e-08
3.04973e-08
3.01025e-08
2.95514e-08
2.88476e-08
2.79958e-08
2.70023e-08
2.58747e-08
2.46225e-08
2.32569e-08
2.17911e-08
2.02402e-08
1.86214e-08
1.69534e-08
1.52565e-08
1.3552e-08
1.18622e-08
1.02093e-08
8.61543e-09
7.10155e-09
5.68733e-09
4.39065e-09
3.22787e-09
2.21507e-09
1.3714e-09
7.22769e-10
2.95119e-10
8.11341e-11
1.20859e-11
6.2053e-13
3.64484e-15
2.57471e-08
2.79175e-08
3.12375e-08
3.53954e-08
3.99779e-08
4.47059e-08
4.93737e-08
5.38429e-08
5.80262e-08
6.18701e-08
6.53429e-08
6.8426e-08
7.11081e-08
7.33828e-08
7.52462e-08
7.6696e-08
7.7731e-08
7.83511e-08
7.85567e-08
7.83496e-08
7.77325e-08
7.67096e-08
7.52877e-08
7.34758e-08
7.12858e-08
6.87332e-08
6.58376e-08
6.26227e-08
5.91173e-08
5.53547e-08
5.13737e-08
4.72173e-08
4.29333e-08
3.85731e-08
3.41908e-08
2.98422e-08
2.55837e-08
2.14708e-08
1.7557e-08
1.38942e-08
1.0534e-08
7.53175e-09
4.95416e-09
2.88366e-09
1.40129e-09
5.23727e-10
1.33986e-10
1.91869e-11
9.71854e-13
5.69132e-15
6.49507e-08
6.8645e-08
7.45679e-08
8.24185e-08
9.13566e-08
1.00816e-07
1.1035e-07
1.1963e-07
1.28425e-07
1.36581e-07
1.43998e-07
1.50612e-07
1.56381e-07
1.61282e-07
1.65296e-07
1.68414e-07
1.70631e-07
1.71941e-07
1.72346e-07
1.71847e-07
1.70449e-07
1.68161e-07
1.64996e-07
1.60973e-07
1.56118e-07
1.50464e-07
1.44053e-07
1.36937e-07
1.29179e-07
1.2085e-07
1.12035e-07
1.02827e-07
9.33308e-08
8.36575e-08
7.39249e-08
6.42548e-08
5.47707e-08
4.55969e-08
3.6859e-08
2.86886e-08
2.12333e-08
1.46696e-08
9.20694e-09
5.05177e-09
2.30099e-09
8.11787e-10
1.99714e-10
2.80523e-11
1.41103e-12
8.24744e-15
1.43182e-07
1.4898e-07
1.58612e-07
1.71872e-07
1.87373e-07
2.04138e-07
2.21352e-07
2.38368e-07
2.54701e-07
2.69997e-07
2.84011e-07
2.96575e-07
3.07574e-07
3.16934e-07
3.24604e-07
3.30551e-07
3.34751e-07
3.37193e-07
3.37869e-07
3.36779e-07
3.3393e-07
3.29335e-07
3.23018e-07
3.15014e-07
3.05371e-07
2.94153e-07
2.81439e-07
2.67328e-07
2.51941e-07
2.35417e-07
2.1792e-07
1.9963e-07
1.80749e-07
1.61494e-07
1.42097e-07
1.22801e-07
1.03857e-07
8.55331e-08
6.81164e-08
5.19352e-08
3.7378e-08
2.4896e-08
1.49425e-08
7.80675e-09
3.39515e-09
1.15582e-09
2.78234e-10
3.86757e-11
1.9374e-12
1.13092e-14
2.84492e-07
2.93198e-07
3.07826e-07
3.28381e-07
3.52938e-07
3.79992e-07
4.08222e-07
4.36523e-07
4.64012e-07
4.90011e-07
5.14015e-07
5.3566e-07
5.54686e-07
5.70912e-07
5.84209e-07
5.94491e-07
6.01695e-07
6.05781e-07
6.06723e-07
6.04512e-07
5.99149e-07
5.90652e-07
5.79057e-07
5.6442e-07
5.46822e-07
5.26369e-07
5.032e-07
4.77489e-07
4.49443e-07
4.19311e-07
3.87378e-07
3.53969e-07
3.19444e-07
2.84199e-07
2.48661e-07
2.13295e-07
1.78605e-07
1.45151e-07
1.13576e-07
8.46299e-08
5.9168e-08
3.80661e-08
2.1992e-08
1.10699e-08
4.6654e-09
1.55354e-09
3.69225e-10
5.10048e-11
2.54823e-12
1.48623e-14
5.20277e-07
5.33145e-07
5.54464e-07
5.83946e-07
6.20089e-07
6.60579e-07
7.03422e-07
7.46908e-07
7.89604e-07
8.30357e-07
8.68265e-07
9.02644e-07
9.32985e-07
9.58911e-07
9.8015e-07
9.96505e-07
1.00783e-06
1.01403e-06
1.01504e-06
1.0108e-06
1.00132e-06
9.86588e-07
9.66665e-07
9.41626e-07
9.11592e-07
8.76729e-07
8.37256e-07
7.9345e-07
7.45652e-07
6.94265e-07
6.39765e-07
5.82696e-07
5.23675e-07
4.63394e-07
4.02626e-07
3.42243e-07
2.83236e-07
2.26744e-07
1.74085e-07
1.26738e-07
8.62262e-08
5.38322e-08
3.01702e-08
1.47824e-08
6.10043e-09
2.00312e-09
4.7228e-10
6.49732e-11
3.2394e-12
1.88758e-14
8.88315e-07
9.07272e-07
9.36785e-07
9.77237e-07
1.02744e-06
1.0844e-06
1.14538e-06
1.20793e-06
1.26992e-06
1.32958e-06
1.38545e-06
1.43639e-06
1.4815e-06
1.5201e-06
1.55168e-06
1.57584e-06
1.5923e-06
1.60084e-06
1.6013e-06
1.59358e-06
1.57761e-06
1.55338e-06
1.52093e-06
1.48036e-06
1.43182e-06
1.37556e-06
1.31191e-06
1.24126e-06
1.16415e-06
1.08122e-06
9.93203e-07
9.01002e-07
8.05643e-07
7.08318e-07
6.10411e-07
5.13526e-07
4.19533e-07
3.30583e-07
2.49067e-07
1.77452e-07
1.17918e-07
7.18533e-08
3.93428e-08
1.89098e-08
7.6955e-09
2.50463e-09
5.87608e-10
8.0626e-11
4.01322e-12
2.33469e-14
1.43044e-06
1.45887e-06
1.49848e-06
1.55209e-06
1.61845e-06
1.69446e-06
1.77661e-06
1.86162e-06
1.94656e-06
2.02886e-06
2.1064e-06
2.17739e-06
2.24044e-06
2.2944e-06
2.3384e-06
2.37175e-06
2.39391e-06
2.40448e-06
2.40314e-06
2.38965e-06
2.36387e-06
2.32569e-06
2.27514e-06
2.2123e-06
2.13737e-06
2.05067e-06
1.95263e-06
1.84386e-06
1.72513e-06
1.5974e-06
1.46186e-06
1.31991e-06
1.17328e-06
1.02399e-06
8.74458e-07
7.27528e-07
5.86489e-07
4.55009e-07
3.36887e-07
2.35602e-07
1.5365e-07
9.19312e-08
4.94552e-08
2.34435e-08
9.45537e-09
3.06291e-09
7.17061e-10
9.82931e-11
4.8912e-12
2.84802e-14
2.18831e-06
2.23233e-06
2.28488e-06
2.35447e-06
2.4381e-06
2.5349e-06
2.64035e-06
2.75025e-06
2.86077e-06
2.96848e-06
3.07042e-06
3.16407e-06
3.24734e-06
3.31852e-06
3.37622e-06
3.41932e-06
3.44694e-06
3.45835e-06
3.45297e-06
3.43037e-06
3.39021e-06
3.33228e-06
3.25649e-06
3.1629e-06
3.0517e-06
2.92328e-06
2.77824e-06
2.61741e-06
2.44192e-06
2.25321e-06
2.05311e-06
1.84389e-06
1.62835e-06
1.40986e-06
1.19247e-06
9.80924e-07
7.80526e-07
5.96887e-07
4.35319e-07
2.99996e-07
1.93042e-07
1.14071e-07
6.05625e-08
2.84325e-08
1.14197e-08
3.70003e-09
8.67624e-10
1.18925e-10
5.89396e-12
3.40829e-14
3.19736e-06
3.26749e-06
3.33703e-06
3.42513e-06
3.52769e-06
3.64616e-06
3.77581e-06
3.91162e-06
4.04887e-06
4.18321e-06
4.31075e-06
4.42814e-06
4.53248e-06
4.62135e-06
4.6927e-06
4.74486e-06
4.77643e-06
4.78624e-06
4.77335e-06
4.73697e-06
4.6765e-06
4.59149e-06
4.48169e-06
4.34704e-06
4.18773e-06
4.00418e-06
3.7972e-06
3.56793e-06
3.318e-06
3.04958e-06
2.7655e-06
2.46933e-06
2.16551e-06
1.85947e-06
1.5576e-06
1.26721e-06
9.96147e-07
7.52161e-07
5.4189e-07
3.69619e-07
2.35991e-07
1.3827e-07
7.26669e-08
3.39732e-08
1.3713e-08
4.49704e-09
1.07039e-09
1.48557e-10
7.34222e-12
3.98318e-14
4.47912e-06
4.59218e-06
4.68483e-06
4.79459e-06
4.91861e-06
5.05849e-06
5.21173e-06
5.37272e-06
5.53592e-06
5.69608e-06
5.84841e-06
5.98862e-06
6.11293e-06
6.21809e-06
6.3013e-06
6.36014e-06
6.39258e-06
6.39686e-06
6.3715e-06
6.31526e-06
6.22711e-06
6.10624e-06
5.95214e-06
5.76457e-06
5.54362e-06
5.2898e-06
5.00414e-06
4.68825e-06
4.3445e-06
3.97612e-06
3.58741e-06
3.18384e-06
2.77225e-06
2.36084e-06
1.95911e-06
1.57746e-06
1.22652e-06
9.16081e-07
6.53768e-07
4.43815e-07
3.31477e-07
1.8176e-07
9.70137e-08
4.65968e-08
1.97989e-08
7.03617e-09
1.89774e-09
3.26803e-10
2.40911e-11
1.74399e-13
6.0333e-06
6.21389e-06
6.33864e-06
6.47472e-06
6.62396e-06
6.78401e-06
6.95859e-06
7.14212e-06
7.32838e-06
7.51135e-06
7.68533e-06
7.84513e-06
7.98608e-06
8.10401e-06
8.19524e-06
8.25653e-06
8.28505e-06
8.2783e-06
8.23411e-06
8.1506e-06
8.02617e-06
7.85954e-06
7.64979e-06
7.3964e-06
7.09935e-06
6.75924e-06
6.37742e-06
5.95617e-06
5.49891e-06
5.0104e-06
4.49698e-06
3.96677e-06
3.42973e-06
2.89759e-06
2.38349e-06
1.90121e-06
1.46398e-06
1.08309e-06
7.66219e-07
5.15849e-07
3.79191e-07
2.08534e-07
1.09556e-07
5.24979e-08
2.25647e-08
8.15367e-09
2.22913e-09
3.8491e-10
2.73205e-11
1.77922e-13
7.8314e-06
8.11185e-06
8.28074e-06
8.44899e-06
8.62529e-06
8.80792e-06
9.00068e-06
9.20253e-06
9.407e-06
9.60756e-06
9.79782e-06
9.97176e-06
1.01238e-05
1.02489e-05
1.03424e-05
1.04002e-05
1.04185e-05
1.03939e-05
1.03234e-05
1.02043e-05
1.00344e-05
9.81165e-06
9.53465e-06
9.20254e-06
8.81516e-06
8.37323e-06
7.87858e-06
7.33442e-06
6.74561e-06
6.11897e-06
5.46355e-06
4.79079e-06
4.1145e-06
3.45049e-06
2.81581e-06
2.2275e-06
1.70095e-06
1.24812e-06
8.75981e-07
5.84801e-07
4.24316e-07
2.32657e-07
1.21301e-07
5.82652e-08
2.52804e-08
9.18944e-09
2.51521e-09
4.3657e-10
3.11519e-11
2.03324e-13
9.8136e-06
1.02316e-05
1.04591e-05
1.06667e-05
1.08731e-05
1.10815e-05
1.12893e-05
1.1504e-05
1.17204e-05
1.19316e-05
1.2131e-05
1.23119e-05
1.24678e-05
1.25929e-05
1.26815e-05
1.27286e-05
1.27294e-05
1.26795e-05
1.25749e-05
1.24119e-05
1.21875e-05
1.1899e-05
1.15442e-05
1.11218e-05
1.06317e-05
1.00748e-05
9.45344e-06
8.77217e-06
8.03771e-06
7.25946e-06
6.44979e-06
5.62406e-06
4.8004e-06
3.99897e-06
3.2407e-06
2.54555e-06
1.93043e-06
1.40724e-06
9.81609e-07
6.51596e-07
4.69655e-07
2.57516e-07
1.34237e-07
6.4805e-08
2.83165e-08
8.97317e-09
2.35436e-09
3.99415e-10
2.64081e-11
1.01707e-13
1.18905e-05
1.24836e-05
1.27848e-05
1.30394e-05
1.32789e-05
1.3513e-05
1.37382e-05
1.39602e-05
1.41815e-05
1.43958e-05
1.45963e-05
1.4776e-05
1.49278e-05
1.5045e-05
1.51211e-05
1.51501e-05
1.51262e-05
1.50438e-05
1.4898e-05
1.4684e-05
1.43978e-05
1.40357e-05
1.35952e-05
1.30744e-05
1.24729e-05
1.17921e-05
1.10352e-05
1.02083e-05
9.32033e-06
8.38372e-06
7.4146e-06
6.43262e-06
5.46043e-06
4.52246e-06
3.64322e-06
2.845e-06
2.1456e-06
1.5563e-06
1.08099e-06
7.15433e-07
5.1367e-07
2.83404e-07
1.48165e-07
7.18798e-08
3.15001e-08
9.97373e-09
2.67735e-09
4.60253e-10
3.10452e-11
1.25157e-13
1.39499e-05
1.47481e-05
1.51356e-05
1.54433e-05
1.57186e-05
1.59774e-05
1.62226e-05
1.64496e-05
1.66691e-05
1.68791e-05
1.7073e-05
1.72438e-05
1.73839e-05
1.7486e-05
1.75428e-05
1.75473e-05
1.74927e-05
1.73725e-05
1.71804e-05
1.69108e-05
1.65585e-05
1.6119e-05
1.55891e-05
1.49664e-05
1.42507e-05
1.34435e-05
1.25494e-05
1.15759e-05
1.05347e-05
9.44141e-06
8.31609e-06
7.18276e-06
6.06843e-06
5.00149e-06
4.00943e-06
3.11628e-06
2.3401e-06
1.69117e-06
1.17137e-06
7.74071e-07
5.53819e-07
3.08199e-07
1.6158e-07
7.86317e-08
3.45362e-08
1.09352e-08
2.9482e-09
5.04618e-10
3.45947e-11
1.40909e-13
1.58679e-05
1.68851e-05
1.73651e-05
1.77291e-05
1.80406e-05
1.83231e-05
1.85839e-05
1.88201e-05
1.90343e-05
1.92343e-05
1.94156e-05
1.95714e-05
1.96941e-05
1.97759e-05
1.98087e-05
1.97848e-05
1.96963e-05
1.95357e-05
1.92958e-05
1.89699e-05
1.85517e-05
1.8036e-05
1.74188e-05
1.66975e-05
1.58718e-05
1.49438e-05
1.39192e-05
1.28074e-05
1.16225e-05
1.03836e-05
9.1144e-06
7.84304e-06
6.60048e-06
5.41845e-06
4.32682e-06
3.35073e-06
2.50807e-06
1.80784e-06
1.24991e-06
8.25311e-07
5.88449e-07
3.30187e-07
1.7345e-07
8.46304e-08
3.72991e-08
1.18666e-08
3.23206e-09
5.6276e-10
3.93676e-11
1.53634e-13
1.75212e-05
1.87487e-05
1.93182e-05
1.97359e-05
2.00815e-05
2.0385e-05
2.06579e-05
2.09026e-05
2.1114e-05
2.1301e-05
2.14663e-05
2.1604e-05
2.17067e-05
2.1766e-05
2.17736e-05
2.17208e-05
2.15989e-05
2.13997e-05
2.11148e-05
2.07367e-05
2.02583e-05
1.96736e-05
1.8978e-05
1.81688e-05
1.72455e-05
1.6211e-05
1.50719e-05
1.38394e-05
1.25302e-05
1.11659e-05
9.774e-06
8.38589e-06
7.03583e-06
5.7582e-06
4.5846e-06
3.54079e-06
2.64423e-06
1.90263e-06
1.31406e-06
8.67497e-07
6.16767e-07
3.4887e-07
1.83687e-07
8.99456e-08
3.9879e-08
1.28511e-08
3.54666e-09
6.35429e-10
3.79514e-11
3.95346e-13
1.88004e-05
2.02039e-05
2.08488e-05
2.13112e-05
2.16848e-05
2.20051e-05
2.22866e-05
2.25345e-05
2.27474e-05
2.29238e-05
2.3073e-05
2.31931e-05
2.32768e-05
2.33156e-05
2.33005e-05
2.32224e-05
2.3072e-05
2.28402e-05
2.25181e-05
2.20972e-05
2.157e-05
2.09298e-05
2.01716e-05
1.92924e-05
1.82919e-05
1.71735e-05
1.59447e-05
1.46183e-05
1.32125e-05
1.17518e-05
1.02659e-05
8.78907e-06
7.35791e-06
6.0087e-06
4.77416e-06
3.68035e-06
2.74423e-06
1.97242e-06
1.36156e-06
8.99112e-07
6.37739e-07
3.63972e-07
1.92273e-07
9.45893e-08
4.22837e-08
1.38648e-08
3.93203e-09
7.31683e-10
4.5722e-11
4.93216e-13
1.96285e-05
2.11527e-05
2.18499e-05
2.2343e-05
2.27354e-05
2.30666e-05
2.33534e-05
2.36023e-05
2.38141e-05
2.39861e-05
2.41234e-05
2.42299e-05
2.42994e-05
2.43232e-05
2.42918e-05
2.41957e-05
2.40253e-05
2.3771e-05
2.34234e-05
2.29737e-05
2.24136e-05
2.17364e-05
2.09366e-05
2.00111e-05
1.89599e-05
1.77865e-05
1.64992e-05
1.51116e-05
1.36435e-05
1.21207e-05
1.05746e-05
9.04122e-06
7.55868e-06
6.16439e-06
4.8917e-06
3.76675e-06
2.80613e-06
2.01571e-06
1.39119e-06
9.19095e-07
6.50159e-07
3.74687e-07
1.98668e-07
9.81886e-08
4.42559e-08
1.47778e-08
4.38324e-09
9.00149e-10
1.13315e-10
2.55541e-12
1.9926e-05
2.14952e-05
2.2212e-05
2.27162e-05
2.3115e-05
2.34496e-05
2.37376e-05
2.39861e-05
2.41964e-05
2.43666e-05
2.44988e-05
2.45994e-05
2.46629e-05
2.46803e-05
2.46422e-05
2.45389e-05
2.43606e-05
2.40974e-05
2.374e-05
2.32793e-05
2.27069e-05
2.20158e-05
2.12007e-05
2.02584e-05
1.91888e-05
1.79957e-05
1.66876e-05
1.52784e-05
1.37884e-05
1.22439e-05
1.0677e-05
9.12429e-06
7.6243e-06
6.21484e-06
4.92944e-06
3.79425e-06
2.82567e-06
2.0293e-06
1.4005e-06
9.25433e-07
6.52275e-07
3.79565e-07
2.01695e-07
9.99416e-08
4.5274e-08
1.5278e-08
4.66615e-09
1.05176e-09
1.72359e-10
1.32418e-11
1.96713e-05
2.12014e-05
2.19008e-05
2.23938e-05
2.27851e-05
2.31147e-05
2.33997e-05
2.36464e-05
2.38557e-05
2.4025e-05
2.41597e-05
2.42638e-05
2.43309e-05
2.43522e-05
2.43183e-05
2.42197e-05
2.40467e-05
2.37898e-05
2.34396e-05
2.29873e-05
2.24247e-05
2.17449e-05
2.09426e-05
2.00148e-05
1.89613e-05
1.77859e-05
1.64967e-05
1.51076e-05
1.36382e-05
1.21144e-05
1.05677e-05
9.03414e-06
7.55174e-06
6.15787e-06
4.88583e-06
3.7617e-06
2.80198e-06
2.01248e-06
1.38885e-06
9.17543e-07
6.4372e-07
3.77497e-07
2.00461e-07
9.92156e-08
4.48395e-08
1.49396e-08
4.47146e-09
9.48184e-10
1.21715e-10
3.50348e-12
1.88861e-05
2.02999e-05
2.09478e-05
2.14092e-05
2.17801e-05
2.2097e-05
2.23747e-05
2.26182e-05
2.28263e-05
2.29975e-05
2.31418e-05
2.32573e-05
2.33363e-05
2.33703e-05
2.33504e-05
2.32674e-05
2.3112e-05
2.28753e-05
2.25482e-05
2.21224e-05
2.15902e-05
2.09452e-05
2.01822e-05
1.92985e-05
1.82937e-05
1.71713e-05
1.5939e-05
1.46095e-05
1.32013e-05
1.17389e-05
1.02519e-05
8.77469e-06
7.34383e-06
5.9955e-06
4.7623e-06
3.67013e-06
2.73582e-06
1.96584e-06
1.35674e-06
8.95894e-07
6.25659e-07
3.68839e-07
1.95268e-07
9.62318e-08
4.31381e-08
1.40208e-08
4.0147e-09
7.62427e-10
7.41755e-11
5.24368e-13
1.76473e-05
1.8887e-05
1.94589e-05
1.98736e-05
2.02148e-05
2.0513e-05
2.07801e-05
2.10184e-05
2.1223e-05
2.14029e-05
2.15616e-05
2.16927e-05
2.17887e-05
2.18414e-05
2.18421e-05
2.17824e-05
2.16537e-05
2.14475e-05
2.11557e-05
2.07706e-05
2.02853e-05
1.96938e-05
1.89916e-05
1.8176e-05
1.72466e-05
1.62065e-05
1.50625e-05
1.38258e-05
1.25131e-05
1.11464e-05
9.75299e-06
8.36442e-06
7.01484e-06
5.73853e-06
4.56691e-06
3.52553e-06
2.63164e-06
1.89274e-06
1.30676e-06
8.62622e-07
5.99778e-07
3.55187e-07
1.87391e-07
9.18714e-08
4.07988e-08
1.2975e-08
3.60653e-09
6.51409e-10
5.9988e-11
4.02571e-13
1.6022e-05
1.70524e-05
1.75341e-05
1.78938e-05
1.81997e-05
1.84755e-05
1.87291e-05
1.89575e-05
1.91635e-05
1.93554e-05
1.95289e-05
1.96767e-05
1.97914e-05
1.98651e-05
1.98898e-05
1.98576e-05
1.97608e-05
1.95919e-05
1.93436e-05
1.90092e-05
1.85827e-05
1.80587e-05
1.74335e-05
1.67045e-05
1.58714e-05
1.49367e-05
1.3906e-05
1.27891e-05
1.16001e-05
1.03581e-05
9.08719e-06
7.81531e-06
6.5734e-06
5.39306e-06
4.30395e-06
3.33097e-06
2.49174e-06
1.79499e-06
1.24041e-06
8.18959e-07
5.67276e-07
3.37686e-07
1.77705e-07
8.67411e-08
3.82267e-08
1.19686e-08
3.27241e-09
5.74702e-10
4.08236e-11
1.65982e-13
1.41219e-05
1.49322e-05
1.53205e-05
1.56231e-05
1.58917e-05
1.61431e-05
1.63802e-05
1.65987e-05
1.68094e-05
1.70109e-05
1.71964e-05
1.73585e-05
1.74898e-05
1.75831e-05
1.7631e-05
1.76265e-05
1.75628e-05
1.74333e-05
1.7232e-05
1.69531e-05
1.65916e-05
1.6143e-05
1.56041e-05
1.49729e-05
1.4249e-05
1.34343e-05
1.25334e-05
1.15542e-05
1.05083e-05
9.41159e-06
8.28425e-06
7.15029e-06
6.03667e-06
4.97163e-06
3.98246e-06
3.0929e-06
2.32072e-06
1.67589e-06
1.16008e-06
7.66607e-07
5.29109e-07
3.16944e-07
1.66498e-07
8.10189e-08
3.55292e-08
1.10127e-08
2.97927e-09
5.11479e-10
3.45261e-11
1.40892e-13
1.2069e-05
1.26721e-05
1.29733e-05
1.3222e-05
1.34545e-05
1.36808e-05
1.38978e-05
1.41112e-05
1.4324e-05
1.45299e-05
1.47219e-05
1.48929e-05
1.50359e-05
1.51441e-05
1.52112e-05
1.5231e-05
1.51977e-05
1.51059e-05
1.49505e-05
1.4727e-05
1.44312e-05
1.40597e-05
1.36099e-05
1.30801e-05
1.24702e-05
1.17815e-05
1.10175e-05
1.01845e-05
9.29155e-06
8.35129e-06
7.37993e-06
6.39718e-06
5.42564e-06
4.48963e-06
3.61341e-06
2.81902e-06
2.12393e-06
1.53915e-06
1.06825e-06
7.07041e-07
4.86133e-07
2.93132e-07
1.53705e-07
7.45961e-08
3.26228e-08
1.00636e-08
2.70887e-09
4.67298e-10
3.09758e-11
1.22363e-13
9.98818e-06
1.04133e-05
1.064e-05
1.08416e-05
1.1041e-05
1.12419e-05
1.14419e-05
1.16486e-05
1.18572e-05
1.20606e-05
1.2252e-05
1.24247e-05
1.25722e-05
1.26888e-05
1.27687e-05
1.28069e-05
1.27986e-05
1.27395e-05
1.26256e-05
1.24534e-05
1.22196e-05
1.19218e-05
1.15579e-05
1.11268e-05
1.06283e-05
1.00635e-05
9.43511e-06
8.74771e-06
8.00821e-06
7.2262e-06
6.41416e-06
5.5875e-06
4.76435e-06
3.96474e-06
3.20943e-06
2.5181e-06
1.90736e-06
1.3888e-06
9.67732e-07
6.42375e-07
4.40599e-07
2.67191e-07
1.39681e-07
6.75313e-08
2.94791e-08
9.06872e-09
2.39068e-09
4.09617e-10
2.72893e-11
1.02981e-13
7.99299e-06
8.27776e-06
8.44532e-06
8.60778e-06
8.77766e-06
8.95349e-06
9.13931e-06
9.33435e-06
9.53202e-06
9.72565e-06
9.9088e-06
1.00754e-05
1.02199e-05
1.03373e-05
1.04228e-05
1.04724e-05
1.04824e-05
1.04493e-05
1.03702e-05
1.02425e-05
1.00638e-05
9.83245e-06
9.54696e-06
9.20659e-06
8.81132e-06
8.362e-06
7.86064e-06
7.31059e-06
6.71691e-06
6.08656e-06
5.42871e-06
4.75489e-06
4.0789e-06
3.41647e-06
2.78449e-06
2.19978e-06
1.67744e-06
1.22905e-06
8.61291e-07
5.74709e-07
3.94751e-07
2.41067e-07
1.25775e-07
6.04775e-08
2.62849e-08
9.53801e-09
2.60679e-09
4.58895e-10
3.35496e-11
2.2295e-13
6.1753e-06
6.35788e-06
6.48106e-06
6.61197e-06
6.75569e-06
6.90998e-06
7.0789e-06
7.25687e-06
7.4375e-06
7.61467e-06
7.78265e-06
7.93623e-06
8.07071e-06
8.18192e-06
8.26621e-06
8.32035e-06
8.34153e-06
8.32729e-06
8.27547e-06
8.18425e-06
8.05208e-06
7.87774e-06
7.66038e-06
7.39958e-06
7.09542e-06
6.74864e-06
6.36071e-06
5.93407e-06
5.47229e-06
4.98026e-06
4.46447e-06
3.93309e-06
3.39612e-06
2.86525e-06
2.35348e-06
1.87439e-06
1.44098e-06
1.06419e-06
7.51559e-07
5.05839e-07
3.49104e-07
2.1654e-07
1.13261e-07
5.42392e-08
2.33981e-08
8.48677e-09
2.32361e-09
4.00726e-10
2.83413e-11
1.83682e-13
4.59775e-06
4.71119e-06
4.80232e-06
4.90778e-06
5.02732e-06
5.16272e-06
5.31162e-06
5.4683e-06
5.62708e-06
5.78266e-06
5.93018e-06
6.06532e-06
6.18432e-06
6.28392e-06
6.36133e-06
6.41417e-06
6.44042e-06
6.43836e-06
6.40652e-06
6.34372e-06
6.24896e-06
6.1215e-06
5.96088e-06
5.76694e-06
5.53987e-06
5.28027e-06
4.98929e-06
4.66867e-06
4.3209e-06
3.94935e-06
3.55841e-06
3.15364e-06
2.74192e-06
2.33142e-06
1.93157e-06
1.55264e-06
1.20507e-06
8.98445e-07
6.40427e-07
4.3543e-07
2.9937e-07
1.91602e-07
1.01391e-07
4.85386e-08
2.07418e-08
7.44192e-09
2.02428e-09
3.48924e-10
2.48916e-11
1.63329e-13
3.29158e-06
3.36119e-06
3.42948e-06
3.51426e-06
3.61346e-06
3.72871e-06
3.85522e-06
3.98788e-06
4.12186e-06
4.25273e-06
4.3766e-06
4.49006e-06
4.59022e-06
4.67467e-06
4.74139e-06
4.78872e-06
4.81528e-06
4.81994e-06
4.80177e-06
4.76004e-06
4.69417e-06
4.60376e-06
4.48861e-06
4.34872e-06
4.18435e-06
3.99602e-06
3.7846e-06
3.55136e-06
3.29802e-06
3.02686e-06
2.74079e-06
2.44345e-06
2.13935e-06
1.8339e-06
1.53346e-06
1.24526e-06
9.77025e-07
7.36405e-07
5.30151e-07
3.62844e-07
2.32052e-07
1.354e-07
7.1096e-08
3.32097e-08
1.34239e-08
4.40911e-09
1.04907e-09
1.45515e-10
7.17861e-12
3.88899e-14
2.2594e-06
2.30257e-06
2.35423e-06
2.42146e-06
2.50279e-06
2.59742e-06
2.70076e-06
2.8085e-06
2.91673e-06
3.02198e-06
3.12123e-06
3.21196e-06
3.29208e-06
3.3599e-06
3.41404e-06
3.45342e-06
3.47716e-06
3.48456e-06
3.47507e-06
3.44829e-06
3.4039e-06
3.34173e-06
3.26174e-06
3.16402e-06
3.04883e-06
2.91661e-06
2.76804e-06
2.60403e-06
2.42577e-06
2.2348e-06
2.03301e-06
1.82275e-06
1.60683e-06
1.38866e-06
1.17229e-06
9.62391e-07
7.64204e-07
5.83197e-07
4.24635e-07
2.93017e-07
1.89045e-07
1.11555e-07
5.92686e-08
2.78609e-08
1.12134e-08
3.63712e-09
8.52781e-10
1.16817e-10
5.78701e-12
3.35016e-14
1.48128e-06
1.50889e-06
1.54798e-06
1.60003e-06
1.66498e-06
1.73968e-06
1.82052e-06
1.90416e-06
1.98759e-06
2.06822e-06
2.14388e-06
2.21281e-06
2.27358e-06
2.3251e-06
2.36649e-06
2.39709e-06
2.41638e-06
2.42397e-06
2.41956e-06
2.40295e-06
2.374e-06
2.33266e-06
2.27895e-06
2.21301e-06
2.13507e-06
2.0455e-06
1.94478e-06
1.83358e-06
1.71271e-06
1.58322e-06
1.44631e-06
1.30348e-06
1.15645e-06
1.0073e-06
8.58422e-07
7.12666e-07
5.73283e-07
4.43829e-07
3.27923e-07
2.29174e-07
1.49524e-07
8.94513e-08
4.81766e-08
2.28498e-08
9.22334e-09
2.98852e-09
6.99279e-10
9.57347e-11
4.75334e-12
2.76075e-14
9.22642e-07
9.40979e-07
9.70276e-07
1.00983e-06
1.05927e-06
1.11552e-06
1.17578e-06
1.23752e-06
1.29859e-06
1.35717e-06
1.41181e-06
1.46134e-06
1.5049e-06
1.5418e-06
1.57155e-06
1.59378e-06
1.60821e-06
1.61464e-06
1.61292e-06
1.60298e-06
1.58476e-06
1.55827e-06
1.52357e-06
1.48078e-06
1.43009e-06
1.37177e-06
1.30617e-06
1.23376e-06
1.1551e-06
1.07085e-06
9.81811e-07
8.88905e-07
7.9319e-07
6.95877e-07
5.98356e-07
5.02232e-07
4.09368e-07
3.21869e-07
2.41971e-07
1.72119e-07
1.14278e-07
6.95983e-08
3.81122e-08
1.8311e-08
7.45179e-09
2.42485e-09
5.68504e-10
7.79014e-11
3.86976e-12
2.24779e-14
5.42036e-07
5.54518e-07
5.75832e-07
6.04884e-07
6.40697e-07
6.80873e-07
7.2337e-07
7.66432e-07
8.086e-07
8.48704e-07
8.85837e-07
9.19316e-07
9.48639e-07
9.73444e-07
9.9347e-07
1.00853e-06
1.0185e-06
1.02329e-06
1.02283e-06
1.0171e-06
1.0061e-06
9.89843e-07
9.68399e-07
9.41861e-07
9.10366e-07
8.74102e-07
8.33312e-07
7.88298e-07
7.39425e-07
6.87126e-07
6.31899e-07
5.74314e-07
5.15005e-07
4.54678e-07
3.94116e-07
3.34188e-07
2.75885e-07
2.20334e-07
1.68769e-07
1.22615e-07
8.32861e-08
5.19318e-08
2.90782e-08
1.42316e-08
5.86891e-09
1.92535e-09
4.53319e-10
6.2232e-11
3.09308e-12
1.79663e-14
2.97323e-07
3.05839e-07
3.20571e-07
3.40995e-07
3.65471e-07
3.92438e-07
4.2054e-07
4.48647e-07
4.75859e-07
5.01489e-07
5.25035e-07
5.46134e-07
5.64534e-07
5.80062e-07
5.92601e-07
6.0207e-07
6.08418e-07
6.11613e-07
6.11633e-07
6.08478e-07
6.02156e-07
5.92693e-07
5.80135e-07
5.64546e-07
5.4602e-07
5.24675e-07
5.00666e-07
4.74179e-07
4.45441e-07
4.14716e-07
3.82304e-07
3.48545e-07
3.1381e-07
2.78506e-07
2.43065e-07
2.07951e-07
1.73667e-07
1.4077e-07
1.09867e-07
8.16692e-08
5.69753e-08
3.65857e-08
2.11002e-08
1.06025e-08
4.4616e-09
1.483e-09
3.51657e-10
4.84292e-11
2.40958e-12
1.39973e-14
1.50128e-07
1.55871e-07
1.65651e-07
1.78924e-07
1.9446e-07
2.11243e-07
2.28435e-07
2.45378e-07
2.61577e-07
2.76679e-07
2.90439e-07
3.02693e-07
3.13333e-07
3.2229e-07
3.29518e-07
3.34991e-07
3.38691e-07
3.40611e-07
3.40746e-07
3.39103e-07
3.35691e-07
3.30529e-07
3.23645e-07
3.15082e-07
3.04892e-07
2.93147e-07
2.79935e-07
2.65365e-07
2.49564e-07
2.32684e-07
2.14896e-07
1.96388e-07
1.77371e-07
1.58065e-07
1.38707e-07
1.19539e-07
1.00812e-07
8.27901e-08
6.57472e-08
4.99923e-08
3.58864e-08
2.38438e-08
1.42771e-08
7.44143e-09
3.22874e-09
1.09625e-09
2.63075e-10
3.64263e-11
1.81568e-12
1.05494e-14
6.83344e-08
7.20469e-08
7.81089e-08
8.60233e-08
9.50282e-08
1.04534e-07
1.14084e-07
1.23344e-07
1.32081e-07
1.40143e-07
1.4743e-07
1.53882e-07
1.59462e-07
1.64148e-07
1.67928e-07
1.70794e-07
1.72742e-07
1.73774e-07
1.7389e-07
1.73095e-07
1.71395e-07
1.68803e-07
1.65334e-07
1.6101e-07
1.55861e-07
1.49924e-07
1.43244e-07
1.35879e-07
1.27896e-07
1.19373e-07
1.10397e-07
1.01068e-07
9.14919e-08
8.17842e-08
7.2064e-08
6.24534e-08
5.30745e-08
4.40498e-08
3.54994e-08
2.75465e-08
2.03271e-08
1.40023e-08
8.76239e-09
4.79356e-09
2.17668e-09
7.65317e-10
1.8755e-10
2.62186e-11
1.31097e-12
7.61995e-15
2.7186e-08
2.93991e-08
3.28235e-08
3.70428e-08
4.16815e-08
4.64491e-08
5.11365e-08
5.56042e-08
5.97651e-08
6.3567e-08
6.698e-08
6.99873e-08
7.25799e-08
7.47532e-08
7.65049e-08
7.78346e-08
7.87424e-08
7.92296e-08
7.92976e-08
7.89491e-08
7.81881e-08
7.70202e-08
7.54531e-08
7.34973e-08
7.11664e-08
6.84779e-08
6.54531e-08
6.21183e-08
5.85044e-08
5.46473e-08
5.05877e-08
4.63709e-08
4.20463e-08
3.76667e-08
3.32868e-08
2.89628e-08
2.47502e-08
2.07032e-08
1.68731e-08
1.33084e-08
1.00559e-08
7.16563e-09
4.69713e-09
2.72436e-09
1.31894e-09
4.90924e-10
1.25007e-10
1.77984e-11
8.95053e-13
5.20632e-15
9.03271e-09
1.02253e-08
1.18753e-08
1.37988e-08
1.58341e-08
1.78646e-08
1.9816e-08
2.16452e-08
2.33289e-08
2.4855e-08
2.62177e-08
2.74142e-08
2.84434e-08
2.93052e-08
2.99996e-08
3.05271e-08
3.08883e-08
3.10839e-08
3.11147e-08
3.09819e-08
3.06873e-08
3.0233e-08
2.96224e-08
2.88596e-08
2.79499e-08
2.69005e-08
2.57197e-08
2.44179e-08
2.30073e-08
2.15021e-08
1.99183e-08
1.82739e-08
1.65883e-08
1.48823e-08
1.31776e-08
1.14965e-08
9.86093e-09
8.29231e-09
6.81074e-09
5.43453e-09
4.17988e-09
3.06121e-09
2.09245e-09
1.29017e-09
6.77003e-10
2.75111e-10
7.52187e-11
1.11277e-11
5.66325e-13
3.29901e-15
2.33142e-09
2.85872e-09
3.49756e-09
4.19898e-09
4.91008e-09
5.5976e-09
6.24413e-09
6.84159e-09
7.38657e-09
7.87779e-09
8.31487e-09
8.69785e-09
9.0269e-09
9.30224e-09
9.52412e-09
9.69279e-09
9.8085e-09
9.87153e-09
9.88217e-09
9.84086e-09
9.74814e-09
9.60477e-09
9.41179e-09
9.17054e-09
8.88277e-09
8.55068e-09
8.17701e-09
7.76505e-09
7.31868e-09
6.84243e-09
6.3414e-09
5.82128e-09
5.28828e-09
4.749e-09
4.21038e-09
3.67949e-09
3.16339e-09
2.66895e-09
2.20266e-09
1.77042e-09
1.37735e-09
1.02768e-09
7.24623e-10
4.70637e-10
2.68404e-10
1.22602e-10
3.79981e-11
6.12429e-12
3.21159e-13
1.87743e-15
4.1733e-10
5.81846e-10
7.587e-10
9.40639e-10
1.11691e-09
1.28242e-09
1.43539e-09
1.57537e-09
1.70236e-09
1.81648e-09
1.91785e-09
2.00658e-09
2.08278e-09
2.14653e-09
2.19791e-09
2.23699e-09
2.26383e-09
2.2785e-09
2.28108e-09
2.27166e-09
2.25039e-09
2.21743e-09
2.17302e-09
2.11749e-09
2.05123e-09
1.97477e-09
1.88872e-09
1.79386e-09
1.69108e-09
1.58142e-09
1.46606e-09
1.34633e-09
1.22364e-09
1.09953e-09
9.75592e-10
8.53461e-10
7.34771e-10
6.21116e-10
5.14005e-10
4.14821e-10
3.24778e-10
2.44878e-10
1.75857e-10
1.18143e-10
7.18435e-11
3.69227e-11
1.37339e-11
2.66806e-12
1.53049e-13
9.05461e-16
4.25562e-11
7.10195e-11
9.89169e-11
1.25726e-10
1.50659e-10
1.73587e-10
1.94569e-10
2.13681e-10
2.3098e-10
2.46508e-10
2.60293e-10
2.72355e-10
2.82712e-10
2.91377e-10
2.98361e-10
3.03674e-10
3.07324e-10
3.09323e-10
3.09679e-10
3.08408e-10
3.05527e-10
3.0106e-10
2.95041e-10
2.87512e-10
2.78529e-10
2.68161e-10
2.56494e-10
2.43632e-10
2.29697e-10
2.14831e-10
1.99194e-10
1.82964e-10
1.66336e-10
1.49515e-10
1.3272e-10
1.16171e-10
1.00091e-10
8.46949e-11
7.01884e-11
5.67599e-11
4.45757e-11
3.37742e-11
2.44599e-11
1.66965e-11
1.04984e-11
5.82307e-12
2.57683e-12
6.85215e-13
5.2137e-14
3.27342e-16
1.631e-12
3.29896e-12