/*--------------------------------*- C++ -*----------------------------------*\
| =========                 |                                                 |
| \\      /  F ield         | foam-extend: Open Source CFD                    |
|  \\    /   O peration     | Version:     4.0                                |
|   \\  /    A nd           | Web:         http://www.foam-extend.org         |
|    \\/     M anipulation  |                                                 |
\*---------------------------------------------------------------------------*/
FoamFile
{
    version     2.0;
    format      ascii;
    class       volScalarField;
    location    "0.0015";
    object      omega;
}
// * * * * * * * * * * * * * * * * * * * * * * * * * * * * * * * * * * * * * //

dimensions      [0 0 -1 0 0 0 0];

internalField   nonuniform List<scalar> 
28770
(
1.87595e+07
1.87595e+07
1.87595e+07
1.87595e+07
1.87595e+07
1.87595e+07
1.87595e+07
1.87595e+07
1.87595e+07
1.87595e+07
1.87595e+07
1.87595e+07
1.87595e+07
1.87595e+07
1.87595e+07
1.87595e+07
1.87595e+07
1.87595e+07
1.87595e+07
1.87595e+07
1.87595e+07
1.87595e+07
1.87595e+07
1.87595e+07
1.87595e+07
1.87595e+07
1.87595e+07
1.87595e+07
1.87595e+07
1.87595e+07
1.87595e+07
1.87595e+07
1.87595e+07
1.87595e+07
1.87595e+07
1.87595e+07
1.87595e+07
1.87595e+07
1.87595e+07
1.87595e+07
1.87595e+07
1.87595e+07
1.87595e+07
1.87595e+07
1.87595e+07
1.87595e+07
1.87595e+07
1.87595e+07
1.87595e+07
1.87595e+07
2.70004e+06
3.18573e+06
3.23008e+06
3.23475e+06
3.23538e+06
3.23549e+06
3.23552e+06
3.23553e+06
3.23554e+06
3.23554e+06
3.23554e+06
3.23554e+06
3.23554e+06
3.23554e+06
3.23554e+06
3.23554e+06
3.23554e+06
3.23554e+06
3.23554e+06
3.23554e+06
3.23555e+06
3.23555e+06
3.23555e+06
3.23555e+06
3.23555e+06
3.23555e+06
3.23555e+06
3.23555e+06
3.23556e+06
3.23556e+06
3.23556e+06
3.23556e+06
3.23556e+06
3.23557e+06
3.23557e+06
3.23557e+06
3.23558e+06
3.23558e+06
3.23559e+06
3.2356e+06
3.23561e+06
3.23564e+06
3.23571e+06
3.23589e+06
3.23648e+06
3.23896e+06
3.2531e+06
3.36215e+06
4.43129e+06
1.79872e+07
679353
1.01711e+06
1.08473e+06
1.09848e+06
1.10156e+06
1.10235e+06
1.10259e+06
1.10267e+06
1.1027e+06
1.10272e+06
1.10272e+06
1.10273e+06
1.10273e+06
1.10273e+06
1.10273e+06
1.10273e+06
1.10273e+06
1.10273e+06
1.10273e+06
1.10273e+06
1.10273e+06
1.10273e+06
1.10274e+06
1.10274e+06
1.10274e+06
1.10274e+06
1.10274e+06
1.10274e+06
1.10274e+06
1.10274e+06
1.10274e+06
1.10275e+06
1.10275e+06
1.10275e+06
1.10276e+06
1.10276e+06
1.10277e+06
1.10279e+06
1.10282e+06
1.10288e+06
1.10299e+06
1.10323e+06
1.1038e+06
1.10532e+06
1.10992e+06
1.12604e+06
1.19193e+06
1.50336e+06
3.24975e+06
1.79872e+07
228574
430985
496265
516076
522230
524266
524997
525284
525407
525464
525492
525507
525515
525520
525523
525525
525526
525527
525528
525529
525530
525530
525531
525532
525533
525534
525536
525537
525540
525543
525547
525552
525560
525571
525588
525615
525657
525728
525854
526085
526536
527475
529575
534674
548187
587442
712736
1.16001e+06
3.12318e+06
1.79872e+07
96089.1
214054
266504
287523
295775
299081
300463
301071
301355
301494
301567
301606
301629
301643
301651
301656
301660
301663
301665
301666
301668
301669
301671
301672
301674
301677
301680
301684
301689
301697
301707
301721
301742
301773
301819
301892
302009
302204
302541
303147
304286
306540
311249
321676
346216
407822
574726
1.08477e+06
3.10621e+06
1.79872e+07
47898.6
118587
157746
176961
185968
190163
192149
193117
193606
193863
194003
194083
194130
194158
194176
194188
194196
194201
194206
194209
194212
194215
194218
194221
194225
194230
194237
194246
194257
194273
194295
194326
194372
194439
194541
194698
194948
195355
196041
197236
199391
203436
211346
227494
262028
340002
530300
1.06584e+06
3.10319e+06
1.79872e+07
27073.5
71370.1
99954.3
116254
125017
129623
132043
133331
134030
134421
134645
134777
134857
134907
134939
134961
134975
134986
134994
135000
135006
135011
135017
135023
135031
135040
135052
135068
135090
135120
135162
135221
135306
135430
135616
135900
136343
137050
138208
140158
143534
149561
160674
181884
224023
312388
514659
1.06034e+06
3.10247e+06
1.79872e+07
16752.8
45816.7
66737.6
80072.9
88053.5
92680.2
95331.6
96853.6
97736.5
98256.9
98569.6
98761.6
98882.1
98959.6
99010.5
99045
99069.1
99086.5
99099.8
99110.5
99120
99129
99138.5
99149.3
99162.1
99178.2
99199
99226.5
99263.4
99313.8
99383.7
99482.1
99622.4
99826
100126
100577
101265
102340
104052
106840
111487
119425
133349
158533
205909
300421
508652
1.05851e+06
3.10225e+06
1.79872e+07
11092
31047.8
46500.9
57232.6
64226.9
68620.4
71329.4
72989.7
74010
74642.4
75039.3
75292.3
75456.3
75564.7
75637.8
75688.2
75724
75750.4
75770.7
75787.4
75802.2
75816.4
75831.4
75848.3
75868.5
75893.8
75926.4
75969.2
76026.6
76104.4
76211.6
76360.9
76571.9
76874
77313.1
77960.9
78932
80412.4
82709.1
86337.5
92181.4
101792
117977
146059
196852
294904
506129
1.0578e+06
3.10217e+06
1.79872e+07
7731.84
21965.8
33564.9
42170.7
48173.5
52200.9
54842.2
56555
57662.5
58380.8
58850.2
59160
59367.2
59507.9
59605.1
59673.6
59723.2
59760.3
59789.3
59813.4
59834.9
59855.9
59877.9
59902.9
59932.8
59969.9
60017.6
60080
60163
60274.9
60427.5
60638.2
60932.5
61348.6
61944.1
62807.9
64077.8
65971.8
68838.3
73245
80134
91110.5
109009
139108
192071
292162
504949
1.05749e+06
3.10214e+06
1.79872e+07
5612.75
16096.1
24948.7
31884.7
36986.5
40599.1
43094.7
44793.9
45943
46719.2
47245.3
47604.3
47851.5
48023.7
48145.5
48233.3
48297.9
48347.2
48386.3
48419.3
48449.1
48478.2
48509
48543.9
48585.5
48637.2
48703.1
48789
48902.3
49054
49259
49539.1
49925.8
50465.3
51226.1
52311.3
53877.5
56165.8
59552.8
64635.9
72384.1
84415.4
103549
135002
189317
290595
504253
1.05728e+06
3.10211e+06
1.79872e+07
4213.48
12153.8
19045.6
24661.4
28979.3
32177.6
34486.9
36126.9
37280.6
38088.9
38655.3
39053.7
39335.7
39537.2
39682.9
39790
39870.5
39932.9
39983.3
40026.2
40065.5
40104.2
40145.3
40191.9
40247.3
40315.8
40402.8
40515.4
40663
40858.8
41121.1
41475.8
41959.8
42626.2
43552.4
44852.7
46696.8
49341
53177.4
58816.5
67232
80031
100001
132302
187404
289342
503513
1.05694e+06
3.10203e+06
1.79872e+07
3255.38
9418.48
14880.3
19463.7
23120.4
25933
28041.5
29594.6
30725.8
31544.6
32136
32563.7
32874.3
33101.6
33269.5
33395.4
33491.9
33567.8
33630.2
33684.1
33733.9
33783.4
33836.1
33895.8
33966.7
34054.1
34164.4
34306.1
34490.7
34733.6
35056
35487.4
36069.3
36860.5
37945.1
39444.7
41537.4
44487
48691.3
54761.6
63662.4
76969.9
97430.4
130148
185534
287616
501895
1.05566e+06
3.10148e+06
1.79872e+07
2580.14
7469.04
11869.3
15643.8
18754.8
21223.2
23133.5
24585.7
25676.2
26488.9
27092.2
27539.8
27872.7
28121.6
28309.4
28452.9
28564.8
28654.4
28729.1
28794.6
28855.7
28916.8
28982.1
29056.1
29143.8
29251.4
29386.5
29559.1
29782.2
30073.4
30456.4
30963.9
31640.8
32550.1
33780.3
35457.4
37762.9
40961.9
45449.9
51831.3
61056.3
74635.6
95261.7
127942
182954
284179
497106
1.04961e+06
3.09626e+06
1.79872e+07
2093.27
6049.52
9651.85
12797
15455.1
17622.3
19346.2
20693.3
21732.5
22527.3
23132
23591.3
23940.5
24206.9
24411.9
24571.4
24697.8
24800.7
24887.7
24965
25037.8
25111.1
25189.7
25278.8
25384.1
25512.8
25673.5
25877.5
26139.5
26478.6
26920.9
27501.3
28267.4
29285
30644.8
32474.4
34954.9
38347.2
43036.7
49613.8
59048.4
72677.8
93155.2
125281
178912
276998
482941
1.0205e+06
3.04088e+06
1.79872e+07
1735.96
4998.17
7993.71
10646.7
12930.8
14839.4
16394.1
17638.5
18621.5
19390.8
19989.4
20453.7
20813.8
21093.9
21313.2
21486.7
21626.6
21742.1
21841.1
21930.1
22014.7
22100.5
22192.6
22297.1
22420.3
22570.3
22756.7
22991.8
23291.7
23677.1
24175.7
24824
25671.6
26785.6
28257.6
30214.7
32834.6
36369.9
41184.4
47808.1
54464.7
67531.9
85767.7
113798
159319
239320
397214
770861
2.00888e+06
1.20425e+07
1470.23
4209.39
6739.3
9005.3
10982.1
12671.5
14076.9
15225.1
16151.2
16891
17478.1
17942.4
18309.1
18599.3
18830.2
19015.9
19167.7
19294.9
19405.3
19505.7
19601.9
19700
19805.6
19925.3
20066.3
20237.1
20448.5
20713.6
21049.7
21478.5
22029.1
22739.2
23659.3
24857
26423.9
28485.3
31215
34858.2
39768.8
46473.2
53170.7
66025.7
83953.3
111260
155236
231989
383218
747011
2.01429e+06
1.24056e+07
1270.77
3612.2
5782.71
7743.87
9474.47
10976.1
12250.8
13311.6
14183
14891.9
15464.5
15925.1
16294.9
16592.3
16832.5
17028.4
17190.7
17328.5
17449.5
17560.5
17667.9
17777.7
17896.4
18030.8
18188.8
18379.6
18614.6
18907.9
19277.5
19746.1
20343.6
21108.4
22091.6
23360.5
25005.9
27150.8
29964.7
33686
38658.1
45391.2
52105.1
64737.6
82362.4
109039
151807
226417
373594
730636
1.98884e+06
1.23852e+07
1120.27
3157.82
5050.21
6771.52
8304.91
9648.57
10810.8
11794.4
12615.4
13293.9
13850.7
14305.4
14675.9
14977.9
15225.2
15429.5
15600.9
15748.1
15878.6
15999.5
16117.2
16238.2
16369.1
16517.3
16691.1
16900.5
17157.3
17476.3
17876.1
18380.3
19019
19831.3
20868.1
22196.3
23905.1
26115.2
28991.7
32766.4
37772.7
44505.3
51211.8
63633.2
80973.3
107084
148657
233633
388264
766382
2.12093e+06
1.69429e+07
1006.65
2812
4489.64
6023.15
7399.7
8615.83
9680.16
10596.8
11372.8
12023.1
12564
13011.6
13381.1
13686
13938.6
14149.7
14328.7
14484
14623
14752.6
14879.7
15010.7
15152.8
15313.5
15501.8
15727.8
16004.1
16346
16772.5
17307.5
17981.7
18834.1
19915.3
21291.6
23050.6
25310.1
28231.3
32039.7
37059.5
43771.8
50452.9
62676.6
79755.2
105389
146104
229169
379527
745816
2.07417e+06
1.69162e+07
921.344
2550.39
4063.52
5451.55
6704.95
7820.46
8802.4
9660.93
10398.4
11023.6
11549.8
11990.2
12357.6
12664.1
12920.7
13137.1
13322.4
13484.4
13630.6
13767.9
13903.1
14043
14194.8
14366.6
14567.5
14808.1
15101.3
15462.8
15912
16473.2
17176.9
18062.3
19179.5
20593.8
22391.2
24687
27638.4
31465
36482.7
43160.1
49801.4
61833.7
78661.3
103873
143892
225610
373954
737751
2.06688e+06
1.69155e+07
858.249
2355.54
3744.83
5022.34
6181.19
7218.64
8137
8945.26
9649.76
10253.8
10767.1
11200.8
11565.9
11873.2
12132.5
12353
12543.2
12710.7
12862.8
13006.5
13148.5
13295.9
13456
13637.1
13848.6
14101.4
14408.7
14786.5
15254.3
15836.7
16564.2
17475.8
18621.1
20064.5
21890.4
24211.7
27181.8
31015.2
36019.4
42651.2
49242.3
61076.5
77635.9
102394
141656
221740
367244
723798
2.02447e+06
1.67945e+07
813.016
2214.98
3514.16
4710.68
5799.66
6778.92
7650.14
8419.01
9095.4
9682.62
10185.6
10613.6
10976.6
11284
11545.2
11768.8
11962.7
12134.5
12291.3
12439.9
12587.4
12740.6
12907.3
13095.8
13315.8
13578.2
13896.6
14287.1
14769.5
15368.3
16114
17045.5
18211.7
19676.4
21522.4
23860.6
26841.1
30673.5
35657.9
42238.6
48777.2
60396.6
76652.3
100859
139097
216585
356867
696657
2.07536e+06
1.19259e+07
782.617
2120.01
3357.88
4499
5539.89
6478.84
7317.25
8059.63
8713.72
9287.44
9783.14
10207.1
10568.4
10875.8
11138.3
11363.9
11560.4
11735.2
11895.3
12047.6
12199
12356.6
12528
12721.9
12948
13217.4
13543.9
13943.5
14436.3
15046.7
15805.3
16750.6
17931.4
19410.4
21269.7
23618.2
26603.6
30431.3
35394.8
41927.2
48424.3
59817.5
75750.3
99314.4
136205
209821
341347
658701
1.9879e+06
1.18221e+07
764.879
2064.3
3266
4374.3
5386.59
6301.45
7120.17
7846.76
8487.73
9051.56
9542.55
9964.24
10324.5
10631.9
10895
11121.8
11319.9
11496.6
11658.7
11813.2
11967
12127.3
12301.7
12498.9
12728.7
13002.5
13333.8
13739.1
14238.2
14855.7
15622.1
16575.7
17765.1
19252.6
21119.4
23473.5
26460.7
30283.6
35231
41727.7
48209.6
59392.3
75043.9
98001.1
133471
202550
320463
584074
1.29151e+06
5.51163e+06
759.151
2046.1
3235.85
4333.29
5336.07
6242.89
7055.02
7776.34
8413.02
8973.07
9462.34
9883.39
10243.3
10550.7
10814.1
11041.3
11239.9
11417.2
11580
11735.2
11889.8
12051
12226.4
12424.8
12655.8
12931
13264
13671.2
14172.4
14792.3
15561.3
16517.7
17709.9
19200.2
21069.5
23425.2
26412.8
30233.8
35175.2
41658.5
48165.5
59189.6
74693.2
97313.5
131934
198553
307058
524271
966544
1.9756e+06
765.241
2064.86
3266.62
4374.92
5387.17
6301.96
7120.6
7847.12
8488
9051.73
9542.7
9964.39
10324.6
10632
10895.1
11121.9
11320
11496.6
11658.8
11813.3
11967.1
12127.3
12301.7
12498.9
12728.7
13002.5
13333.8
13739
14238.1
14855.6
15622
16575.6
17765
19252.5
21119.3
23473.4
26460.6
30283.5
35231
41727.6
48299.1
59258.4
74813.3
97551.8
132475
201054
315582
563115
1.22965e+06
4.58249e+06
783.336
2121.1
3359.09
4500.19
5540.99
6479.81
7318.06
8060.28
8714.17
9287.78
9783.45
10207.4
10568.6
10876.1
11138.5
11364
11560.5
11735.3
11895.4
12047.7
12199
12356.6
12528
12721.9
12947.9
13217.4
13543.8
13943.4
14436.1
15046.5
15805.2
16750.5
17931.2
19410.2
21269.5
23618
26603.5
30431.2
35394.7
41927
48587.6
59582.1
75364.2
98608.2
134768
207960
336435
643708
1.63933e+06
1.17236e+07
814.07
2216.56
3515.88
4712.35
5801.19
6780.25
7651.25
8419.86
9095.99
9683.12
10186
10614
10976.9
11284.3
11545.5
11769
11962.9
12134.6
12291.4
12440
12587.4
12740.7
12907.3
13095.8
13315.7
13578.1
13896.5
14287
14769.3
15368.1
16113.8
17045.2
18211.5
19676.1
21522.2
23860.3
26840.9
30673.3
35657.7
42238.4
49000
60091.5
76185.4
100077
137676
215042
353577
689325
1.74974e+06
1.192e+07
859.592
2357.53
3746.98
5024.4
6183.05
7220.23
8138.29
8946.15
9650.46
10254.5
10767.7
11201.3
11566.3
11873.5
12132.8
12353.3
12543.4
12710.9
12863
13006.6
13148.6
13295.9
13456
13637
13848.5
14101.3
14408.6
14786.3
15254.1
15836.4
16564
17475.5
18620.8
20064.2
21890.1
24211.3
27181.5
31014.9
36019.2
42651
49513.4
60726.1
77138.2
101635
140427
220599
365023
717784
1.99371e+06
1.63316e+07
922.924
2552.7
4065.98
5453.87
6707.01
7822.18
8803.7
9661.9
10399.2
11024.3
11550.4
11990.7
12358.1
12664.5
12921
13137.4
13322.6
13484.6
13630.7
13768
13903.1
14043
14194.8
14366.6
14567.4
14808
15101.1
15462.6
15911.8
16472.9
17176.6
18062
19179.1
20593.4
22390.9
24686.6
27638
31464.7
36482.4
43159.9
50117.5
61445.4
78142.8
103137
142800
224721
372534
735398
2.06318e+06
1.69144e+07
1008.4
2814.53
4492.29
6025.61
7401.82
8617.53
9681.47
10597.9
11373.7
12023.8
12564.6
13012.2
13381.5
13686.4
13939
14150.1
14329
14484.2
14623.1
14752.7
14879.7
15010.7
15152.7
15313.4
15501.6
15727.7
16003.9
16345.7
16772.2
17307.2
17981.4
18833.7
19914.9
21291.2
23050.2
25309.7
28230.9
32039.4
37059.2
43771.6
50819.7
62242.8
79196.3
104617
144977
228240
378005
743480
2.0721e+06
1.69161e+07
1122.14
3160.45
5052.92
6773.97
8306.98
9650.12
10812
11795.5
12616.3
13294.7
13851.4
14306
14676.3
14978.3
15225.6
15429.8
15601.2
15748.3
15878.8
15999.6
16117.2
16238.2
16369
16517.2
16691
16900.3
17157
17476
17875.8
18380
19018.7
19830.9
20867.7
22195.8
23904.7
26114.8
28991.3
32766.1
37772.5
44505
51641.4
63138.4
80345.2
106206
147317
232387
385590
758748
2.0967e+06
1.69197e+07
1272.68
3614.84
5785.35
7746.2
9476.35
10977.5
12252
13312.6
14183.8
14892.6
15465.1
15925.6
16295.4
16592.6
16832.8
17028.6
17190.9
17328.7
17449.6
17560.6
17667.9
17777.7
17896.4
18030.8
18188.7
18379.4
18614.4
18907.7
19277.2
19745.8
20343.2
21108
22091.2
23360.1
25005.5
27150.4
29964.3
33685.7
38657.9
45391
52615
64164.6
81644.4
108030
150215
223892
368235
716074
1.93328e+06
1.21638e+07
1472.13
4211.93
6741.77
9007.41
10983.7
12672.8
14078
15226
16151.9
16891.6
17478.7
17942.8
18309.4
18599.6
18830.5
19016.1
19167.9
19295.1
19405.4
19505.7
19601.9
19699.9
19805.6
19925.2
20066.1
20236.9
20448.2
20713.4
21049.4
21478.2
22028.7
22738.8
23658.9
24856.6
26423.5
28484.9
31214.6
34857.9
39768.5
46473
53785.3
65356.1
83130.7
110113
153462
229085
378384
739928
2.00771e+06
1.24058e+07
1737.78
5000.52
7995.91
10648.5
12932.2
14840.5
16395
17639.2
18622.1
19391.4
19989.8
20454.1
20814.1
21094.1
21313.4
21486.9
21626.7
21742.2
21841.2
21930.1
22014.7
22100.4
22192.6
22297
22420.2
22570.1
22756.5
22991.6
23291.5
23676.9
24175.4
24823.7
25671.3
26785.2
28257.2
30214.4
32834.3
36369.6
41184.2
47807.9
55239.7
66750.3
84833
112490
157183
235344
389124
755715
2.01694e+06
1.23779e+07
2094.95
6051.61
9653.72
12798.4
15456.2
17623.1
19346.9
20693.9
21733
22527.7
23132.4
23591.6
23940.7
24207.1
24412
24571.5
24697.9
24800.8
24887.8
24965
25037.8
25111.1
25189.6
25278.7
25384
25512.6
25673.4
25877.4
26139.2
26478.4
26920.6
27501
28267.1
29284.6
30644.5
32474.1
34954.6
38347
43036.5
49613.6
59048.3
72677.7
93155.2
125281
178912
276998
482941
1.0205e+06
3.04088e+06
1.79872e+07
2581.64
7470.82
11870.8
15644.8
18755.7
21223.9
23134
24586.1
25676.6
26489.2
27092.4
27540
27872.8
28121.7
28309.5
28453
28564.8
28654.5
28729.1
28794.6
28855.7
28916.7
28982
29056
29143.7
29251.3
29386.4
29559
29782.1
30073.2
30456.2
30963.7
31640.6
32549.9
33780.1
35457.2
37762.6
40961.7
45449.8
51831.2
61056.2
74635.5
95261.7
127942
182954
284179
497106
1.04961e+06
3.09626e+06
1.79872e+07
3256.67
9419.91
14881.4
19464.4
23121
25933.5
28041.9
29594.9
30726
31544.7
32136.1
32563.8
32874.4
33101.6
33269.5
33395.5
33491.9
33567.8
33630.2
33684.1
33733.9
33783.3
33836
33895.7
33966.6
34054
34164.3
34306
34490.6
34733.4
35055.8
35487.2
36069.2
36860.3
37944.9
39444.5
41537.2
44486.8
48691.2
54761.5
63662.3
76969.8
97430.3
130148
185534
287616
501895
1.05566e+06
3.10148e+06
1.79872e+07
4214.54
12154.9
19046.4
24661.9
28979.6
32177.8
34487
36127
37280.7
38088.9
38655.3
39053.7
39335.7
39537.2
39682.9
39790
39870.5
39932.9
39983.2
40026.2
40065.5
40104.2
40145.3
40191.8
40247.2
40315.8
40402.8
40515.3
40662.9
40858.7
41121
41475.7
41959.7
42626
43552.3
44852.5
46696.6
49340.9
53177.3
58816.4
67232
80030.9
100001
132302
187404
289342
503513
1.05694e+06
3.10203e+06
1.79872e+07
5613.55
16096.8
24949.1
31884.8
36986.7
40599.2
43094.8
44793.9
45943
46719.2
47245.3
47604.2
47851.4
48023.7
48145.5
48233.2
48297.9
48347.1
48386.3
48419.2
48449
48478.1
48509
48543.8
48585.5
48637.2
48703.1
48788.9
48902.3
49053.9
49258.9
49539
49925.7
50465.2
51226
52311.2
53877.4
56165.7
59552.7
64635.8
72384.1
84415.4
103549
135002
189317
290595
504253
1.05728e+06
3.10211e+06
1.79872e+07
7732.35
21966
33564.8
42170.7
48173.4
52200.9
54842.1
56555
57662.5
58380.8
58850.1
59160
59367.2
59507.9
59605
59673.5
59723.1
59760.2
59789.2
59813.3
59834.9
59855.8
59877.9
59902.9
59932.7
59969.9
60017.6
60080
60163
60274.8
60427.5
60638.2
60932.5
61348.5
61944.1
62807.8
64077.8
65971.7
68838.2
73244.9
80134
91110.4
109009
139108
192071
292162
504949
1.05749e+06
3.10214e+06
1.79872e+07
11092.1
31047.4
46500.4
57232.3
64226.6
68620.2
71329.3
72989.7
74010
74642.3
75039.3
75292.2
75456.3
75564.6
75637.7
75688.2
75724
75750.4
75770.7
75787.4
75802.1
75816.4
75831.3
75848.2
75868.5
75893.8
75926.4
75969.2
76026.6
76104.4
76211.6
76360.9
76571.9
76874
77313.1
77960.8
78932
80412.4
82709
86337.4
92181.3
101792
117977
146059
196852
294904
506129
1.0578e+06
3.10217e+06
1.79872e+07
16752.5
45815.1
66736.5
80072.2
88053.2
92679.9
95331.4
96853.5
97736.5
98256.9
98569.6
98761.5
98882
98959.5
99010.5
99045
99069
99086.5
99099.7
99110.5
99119.9
99129
99138.5
99149.3
99162.1
99178.2
99199
99226.5
99263.4
99313.8
99383.7
99482.1
99622.4
99826
100126
100577
101265
102340
104052
106840
111487
119425
133349
158533
205909
300421
508652
1.05851e+06
3.10225e+06
1.79872e+07
27072.4
71365.3
99952.5
116253
125017
129623
132043
133331
134030
134421
134644
134777
134857
134907
134939
134961
134975
134986
134994
135000
135006
135011
135017
135023
135031
135040
135052
135068
135090
135120
135162
135221
135306
135430
135616
135900
136343
137050
138208
140158
143534
149561
160674
181884
224023
312388
514659
1.06034e+06
3.10247e+06
1.79872e+07
47898.1
118585
157745
176961
185968
190163
192149
193117
193606
193863
194003
194083
194130
194158
194176
194188
194196
194201
194206
194209
194212
194215
194218
194221
194225
194230
194237
194246
194257
194273
194295
194326
194372
194439
194541
194698
194948
195355
196041
197236
199391
203436
211346
227494
262028
340002
530300
1.06584e+06
3.10319e+06
1.79872e+07
96088.9
214053
266504
287522
295775
299081
300463
301071
301354
301494
301567
301606
301629
301643
301651
301656
301660
301663
301665
301666
301668
301669
301671
301672
301674
301677
301680
301684
301689
301697
301707
301721
301742
301773
301819
301892
302009
302204
302541
303147
304286
306540
311249
321676
346216
407822
574726
1.08477e+06
3.10621e+06
1.79872e+07
228574
430984
496265
516076
522230
524266
524997
525284
525407
525464
525492
525507
525515
525520
525523
525525
525526
525527
525528
525529
525530
525530
525531
525532
525533
525534
525536
525537
525540
525543
525547
525552
525560
525571
525588
525615
525657
525728
525854
526085
526536
527475
529575
534674
548187
587442
712736
1.16001e+06
3.12318e+06
1.79872e+07
679353
1.01711e+06
1.08473e+06
1.09848e+06
1.10156e+06
1.10235e+06
1.10259e+06
1.10267e+06
1.1027e+06
1.10272e+06
1.10272e+06
1.10273e+06
1.10273e+06
1.10273e+06
1.10273e+06
1.10273e+06
1.10273e+06
1.10273e+06
1.10273e+06
1.10273e+06
1.10273e+06
1.10273e+06
1.10274e+06
1.10274e+06
1.10274e+06
1.10274e+06
1.10274e+06
1.10274e+06
1.10274e+06
1.10274e+06
1.10274e+06
1.10275e+06
1.10275e+06
1.10275e+06
1.10276e+06
1.10276e+06
1.10277e+06
1.10279e+06
1.10282e+06
1.10288e+06
1.10299e+06
1.10323e+06
1.1038e+06
1.10532e+06
1.10992e+06
1.12604e+06
1.19193e+06
1.50336e+06
3.24975e+06
1.79872e+07
2.70004e+06
3.18573e+06
3.23008e+06
3.23475e+06
3.23538e+06
3.23549e+06
3.23552e+06
3.23553e+06
3.23554e+06
3.23554e+06
3.23554e+06
3.23554e+06
3.23554e+06
3.23554e+06
3.23554e+06
3.23554e+06
3.23554e+06
3.23554e+06
3.23554e+06
3.23554e+06
3.23555e+06
3.23555e+06
3.23555e+06
3.23555e+06
3.23555e+06
3.23555e+06
3.23555e+06
3.23555e+06
3.23556e+06
3.23556e+06
3.23556e+06
3.23556e+06
3.23556e+06
3.23557e+06
3.23557e+06
3.23557e+06
3.23558e+06
3.23558e+06
3.23559e+06
3.2356e+06
3.23561e+06
3.23564e+06
3.23571e+06
3.23589e+06
3.23648e+06
3.23896e+06
3.2531e+06
3.36215e+06
4.43129e+06
1.79872e+07
1.87595e+07
1.87595e+07
1.87595e+07
1.87595e+07
1.87595e+07
1.87595e+07
1.87595e+07
1.87595e+07
1.87595e+07
1.87595e+07
1.87595e+07
1.87595e+07
1.87595e+07
1.87595e+07
1.87595e+07
1.87595e+07
1.87595e+07
1.87595e+07
1.87595e+07
1.87595e+07
1.87595e+07
1.87595e+07
1.87595e+07
1.87595e+07
1.87595e+07
1.87595e+07
1.87595e+07
1.87595e+07
1.87595e+07
1.87595e+07
1.87595e+07
1.87595e+07
1.87595e+07
1.87595e+07
1.87595e+07
1.87595e+07
1.87595e+07
1.87595e+07
1.87595e+07
1.87595e+07
1.87595e+07
1.87595e+07
1.87595e+07
1.87595e+07
1.87595e+07
1.87595e+07
1.87595e+07
1.87595e+07
1.87595e+07
1.87595e+07
6.64498e+07
6.76663e+07
6.76661e+07
6.76661e+07
6.76663e+07
6.76691e+07
6.76682e+07
6.76669e+07
6.76661e+07
6.7666e+07
6.7666e+07
6.7666e+07
6.76661e+07
6.76662e+07
6.76661e+07
6.7666e+07
6.7666e+07
6.7666e+07
6.7666e+07
6.76637e+07
3.10464e+06
3.316e+06
3.32434e+06
3.32447e+06
3.32319e+06
3.30343e+06
3.31491e+06
3.32519e+06
3.32445e+06
3.32455e+06
3.32456e+06
3.32456e+06
3.32456e+06
3.32457e+06
3.32455e+06
3.32456e+06
3.32455e+06
3.32449e+06
3.3223e+06
3.25296e+06
1.15729e+07
1.195e+07
1.19517e+07
1.19517e+07
1.19518e+07
1.19358e+07
1.19423e+07
1.19516e+07
1.19517e+07
1.19517e+07
1.19517e+07
1.19517e+07
1.19517e+07
1.19517e+07
1.19517e+07
1.19517e+07
1.19517e+07
1.19517e+07
1.19513e+07
1.19093e+07
1.87595e+07
1.87595e+07
1.87595e+07
1.87595e+07
1.87595e+07
1.87595e+07
1.87595e+07
1.87595e+07
1.87595e+07
1.87595e+07
1.87595e+07
1.87595e+07
1.87595e+07
1.87595e+07
1.87595e+07
1.87595e+07
1.87595e+07
1.87595e+07
1.87595e+07
1.87595e+07
1.87595e+07
1.87595e+07
1.87595e+07
1.87595e+07
1.87595e+07
1.87595e+07
1.87595e+07
1.87595e+07
1.87595e+07
1.87595e+07
1.87595e+07
1.87595e+07
1.87595e+07
1.87595e+07
1.87595e+07
1.87595e+07
1.87595e+07
1.87595e+07
1.87595e+07
1.87595e+07
1.87595e+07
1.87595e+07
1.87595e+07
1.87595e+07
1.87595e+07
1.87595e+07
1.87595e+07
1.87595e+07
1.87595e+07
1.87595e+07
1.87595e+07
1.87595e+07
1.87595e+07
1.87595e+07
1.87595e+07
1.87595e+07
1.87595e+07
1.87595e+07
1.87595e+07
1.87595e+07
1.87595e+07
1.87595e+07
1.87595e+07
1.87595e+07
1.87595e+07
1.87595e+07
1.87595e+07
1.87595e+07
1.87595e+07
1.87595e+07
1.87595e+07
1.87595e+07
1.87595e+07
1.87595e+07
1.87595e+07
1.87595e+07
1.87595e+07
1.87595e+07
1.87595e+07
1.87595e+07
1.87595e+07
1.87595e+07
1.87595e+07
1.87595e+07
1.87595e+07
1.87595e+07
1.87595e+07
1.87595e+07
1.87595e+07
1.87595e+07
1.87595e+07
1.87595e+07
1.87595e+07
1.87595e+07
1.87595e+07
1.87595e+07
1.87595e+07
1.87595e+07
1.87595e+07
1.87595e+07
1.79872e+07
4.43129e+06
3.36208e+06
3.25301e+06
3.23887e+06
3.23639e+06
3.23581e+06
3.23563e+06
3.23557e+06
3.23555e+06
3.23554e+06
3.23553e+06
3.23553e+06
3.23553e+06
3.23553e+06
3.23553e+06
3.23553e+06
3.23553e+06
3.23553e+06
3.23553e+06
3.23553e+06
3.23553e+06
3.23553e+06
3.23554e+06
3.23554e+06
3.23554e+06
3.23554e+06
3.23554e+06
3.23554e+06
3.23554e+06
3.23554e+06
3.23554e+06
3.23554e+06
3.23554e+06
3.23554e+06
3.23554e+06
3.23554e+06
3.23554e+06
3.23554e+06
3.23554e+06
3.23554e+06
3.23554e+06
3.23554e+06
3.23554e+06
3.23554e+06
3.23554e+06
3.23554e+06
3.23554e+06
3.23554e+06
3.23554e+06
3.23554e+06
3.23554e+06
3.23554e+06
3.23554e+06
3.23554e+06
3.23554e+06
3.23554e+06
3.23554e+06
3.23554e+06
3.23554e+06
3.23554e+06
3.23554e+06
3.23554e+06
3.23554e+06
3.23554e+06
3.23554e+06
3.23554e+06
3.23554e+06
3.23554e+06
3.23554e+06
3.23554e+06
3.23554e+06
3.23554e+06
3.23554e+06
3.23554e+06
3.23554e+06
3.23554e+06
3.23554e+06
3.23554e+06
3.23554e+06
3.23554e+06
3.23554e+06
3.23554e+06
3.23554e+06
3.23554e+06
3.23554e+06
3.23554e+06
3.23554e+06
3.23554e+06
3.23554e+06
3.23554e+06
3.23554e+06
3.23554e+06
3.23554e+06
3.23554e+06
3.23554e+06
3.23554e+06
3.23554e+06
3.23554e+06
3.23554e+06
1.79872e+07
3.24983e+06
1.50335e+06
1.19189e+06
1.126e+06
1.10987e+06
1.10527e+06
1.10376e+06
1.10319e+06
1.10295e+06
1.10284e+06
1.10279e+06
1.10276e+06
1.10274e+06
1.10274e+06
1.10273e+06
1.10273e+06
1.10273e+06
1.10273e+06
1.10273e+06
1.10273e+06
1.10273e+06
1.10273e+06
1.10273e+06
1.10273e+06
1.10273e+06
1.10273e+06
1.10273e+06
1.10273e+06
1.10273e+06
1.10273e+06
1.10273e+06
1.10273e+06
1.10273e+06
1.10273e+06
1.10273e+06
1.10273e+06
1.10273e+06
1.10273e+06
1.10273e+06
1.10273e+06
1.10273e+06
1.10273e+06
1.10273e+06
1.10273e+06
1.10273e+06
1.10273e+06
1.10273e+06
1.10273e+06
1.10273e+06
1.10273e+06
1.10273e+06
1.10273e+06
1.10273e+06
1.10273e+06
1.10273e+06
1.10273e+06
1.10273e+06
1.10273e+06
1.10273e+06
1.10273e+06
1.10273e+06
1.10273e+06
1.10273e+06
1.10273e+06
1.10273e+06
1.10273e+06
1.10273e+06
1.10273e+06
1.10273e+06
1.10273e+06
1.10273e+06
1.10273e+06
1.10273e+06
1.10273e+06
1.10273e+06
1.10273e+06
1.10273e+06
1.10273e+06
1.10273e+06
1.10273e+06
1.10273e+06
1.10273e+06
1.10273e+06
1.10273e+06
1.10273e+06
1.10273e+06
1.10273e+06
1.10273e+06
1.10273e+06
1.10273e+06
1.10273e+06
1.10273e+06
1.10273e+06
1.10273e+06
1.10273e+06
1.10273e+06
1.10273e+06
1.10273e+06
1.10273e+06
1.79872e+07
3.12327e+06
1.16005e+06
712737
587421
548154
534635
529535
527435
526498
526049
525820
525697
525629
525589
525565
525551
525542
525536
525532
525530
525529
525528
525527
525527
525527
525527
525526
525527
525527
525527
525527
525527
525527
525527
525527
525527
525527
525527
525527
525527
525527
525527
525527
525527
525527
525527
525527
525527
525527
525527
525527
525527
525527
525527
525527
525527
525527
525527
525527
525527
525527
525527
525527
525527
525527
525527
525527
525527
525527
525527
525527
525527
525527
525527
525527
525527
525527
525527
525527
525527
525527
525527
525527
525527
525527
525527
525527
525527
525527
525527
525527
525527
525527
525527
525527
525527
525527
525527
525527
1.79872e+07
3.10631e+06
1.08482e+06
574752
407825
346202
321651
311219
306508
304254
303116
302512
302178
301985
301871
301801
301756
301728
301710
301697
301689
301683
301679
301676
301674
301672
301671
301670
301669
301669
301668
301668
301668
301667
301667
301667
301667
301667
301667
301667
301666
301666
301666
301666
301666
301666
301666
301666
301666
301666
301666
301666
301666
301666
301666
301665
301665
301665
301665
301665
301665
301665
301665
301665
301665
301665
301665
301665
301665
301665
301665
301665
301665
301665
301665
301665
301665
301665
301665
301665
301665
301665
301665
301665
301665
301665
301665
301665
301665
301665
301665
301665
301665
301665
301665
301665
301665
301665
301665
301665
1.79872e+07
3.10329e+06
1.0659e+06
530344
340026
262034
227486
211329
203415
199368
197213
196020
195336
194932
194685
194531
194432
194368
194325
194295
194275
194260
194250
194242
194236
194232
194228
194226
194223
194221
194220
194219
194218
194217
194216
194215
194215
194214
194214
194214
194213
194213
194213
194213
194212
194212
194212
194212
194212
194212
194211
194211
194211
194211
194211
194211
194210
194210
194210
194210
194210
194210
194210
194210
194210
194210
194210
194210
194210
194210
194210
194210
194209
194209
194209
194209
194209
194209
194209
194209
194209
194209
194209
194209
194210
194210
194210
194210
194210
194210
194210
194210
194210
194210
194210
194210
194210
194210
194210
194210
1.79872e+07
3.10258e+06
1.06041e+06
514714
312427
224047
181894
160674
149555
143524
140148
138200
137045
136341
135902
135622
135440
135318
135236
135179
135139
135111
135089
135074
135062
135052
135045
135038
135033
135029
135026
135023
135021
135019
135017
135015
135014
135013
135012
135011
135011
135010
135010
135009
135009
135009
135008
135008
135007
135007
135007
135007
135006
135006
135006
135005
135005
135005
135005
135005
135004
135004
135004
135004
135004
135004
135004
135004
135004
135004
135004
135003
135003
135003
135003
135003
135003
135003
135003
135003
135003
135003
135003
135003
135003
135003
135004
135004
135004
135004
135004
135004
135004
135004
135004
135004
135004
135004
135004
135004
1.79872e+07
3.10237e+06
1.05858e+06
508715
300474
205949
158560
133367
119436
111495
106848
104063
102355
101286
100602
100157
99862
99662.6
99525.6
99429.7
99361.3
99311.5
99274.5
99246.4
99224.6
99207.5
99193.6
99182.4
99173.1
99165.4
99158.9
99153.4
99148.8
99145
99141.7
99138.9
99136.6
99134.6
99133
99131.6
99130.3
99129.3
99128.3
99127.5
99126.8
99126.1
99125.4
99124.8
99124.3
99123.8
99123.2
99122.7
99122.3
99121.8
99121.3
99120.9
99120.5
99120.1
99119.8
99119.5
99119.2
99119
99118.8
99118.6
99118.5
99118.4
99118.3
99118.2
99118.1
99118
99118
99117.9
99117.9
99117.9
99117.8
99117.8
99117.8
99117.8
99117.8
99117.8
99117.8
99117.8
99117.8
99117.9
99117.9
99117.9
99117.9
99118
99118
99118
99118.1
99118.1
99118.1
99118.2
99118.2
99118.2
99118.2
99118.3
99118.3
99118.3
1.79872e+07
3.1023e+06
1.05789e+06
506201
294968
196906
146103
118014
101824