/*--------------------------------*- C++ -*----------------------------------*\
| =========                 |                                                 |
| \\      /  F ield         | foam-extend: Open Source CFD                    |
|  \\    /   O peration     | Version:     4.0                                |
|   \\  /    A nd           | Web:         http://www.foam-extend.org         |
|    \\/     M anipulation  |                                                 |
\*---------------------------------------------------------------------------*/
FoamFile
{
    version     2.0;
    format      ascii;
    class       surfaceScalarField;
    location    "0.0015";
    object      phi;
}
// * * * * * * * * * * * * * * * * * * * * * * * * * * * * * * * * * * * * * //

dimensions      [0 3 -1 0 0 0 0];

internalField   nonuniform List<scalar> 
57362
(
9.78362e-11
5.79329e-15
9.78186e-11
1.75428e-14
9.77891e-11
2.94966e-14
9.77472e-11
4.19217e-14
9.76922e-11
5.50317e-14
9.76232e-11
6.8938e-14
9.75394e-11
8.38754e-14
9.74393e-11
1.00015e-13
9.73216e-11
1.17745e-13
9.71843e-11
1.37308e-13
9.70254e-11
1.58898e-13
9.68426e-11
1.82764e-13
9.66332e-11
2.09433e-13
9.6394e-11
2.39177e-13
9.61216e-11
2.72404e-13
9.5812e-11
3.09568e-13
9.54607e-11
3.5124e-13
9.50628e-11
3.97886e-13
9.46127e-11
4.50096e-13
9.41041e-11
5.08514e-13
9.35301e-11
5.74102e-13
9.28828e-11
6.4707e-13
9.21541e-11
7.28952e-13
9.1334e-11
8.19724e-13
9.0413e-11
9.21352e-13
8.93791e-11
1.03329e-12
8.82211e-11
1.15865e-12
8.69248e-11
1.29538e-12
8.54774e-11
1.44827e-12
8.3863e-11
1.61316e-12
8.20671e-11
1.79711e-12
8.00728e-11
1.99256e-12
7.78642e-11
2.21015e-12
7.54249e-11
2.43719e-12
7.27382e-11
2.68851e-12
6.97903e-11
2.94552e-12
6.65653e-11
3.22694e-12
6.3054e-11
3.50878e-12
5.92444e-11
3.81144e-12
5.5134e-11
4.10786e-12
5.07189e-11
4.41678e-12
4.60053e-11
4.71134e-12
4.1001e-11
5.00557e-12
3.57232e-11
5.27598e-12
3.01937e-11
5.53037e-12
2.44418e-11
5.75041e-12
1.85033e-11
5.93895e-12
1.2419e-11
6.08342e-12
6.23494e-12
6.18406e-12
6.23449e-12
9.78374e-11
1.15318e-14
9.78201e-11
3.4819e-14
9.77911e-11
5.85435e-14
9.77498e-11
8.31835e-14
9.76957e-11
1.09188e-13
9.76278e-11
1.36819e-13
9.75452e-11
1.66465e-13
9.74466e-11
1.98653e-13
9.73304e-11
2.3386e-13
9.71951e-11
2.72598e-13
9.70386e-11
3.15421e-13
9.68584e-11
3.62917e-13
9.6652e-11
4.15902e-13
9.64162e-11
4.74907e-13
9.61477e-11
5.40916e-13
9.58424e-11
6.14838e-13
9.54961e-11
6.97617e-13
9.51036e-11
7.9029e-13
9.46596e-11
8.94198e-13
9.41576e-11
1.01036e-12
9.35911e-11
1.14074e-12
9.29521e-11
1.28591e-12
9.22324e-11
1.44883e-12
9.14224e-11
1.62948e-12
9.05122e-11
1.83194e-12
8.94901e-11
2.05487e-12
8.83448e-11
2.30472e-12
8.70621e-11
2.57729e-12
8.56292e-11
2.88241e-12
8.40299e-11
3.21127e-12
8.22497e-11
3.57908e-12
8.02713e-11
3.96937e-12
7.80787e-11
4.40514e-12
7.5655e-11
4.85902e-12
7.29831e-11
5.3634e-12
7.00486e-11
5.8779e-12
6.68348e-11
6.44427e-12
6.33323e-11
7.00921e-12
5.95277e-11
7.61994e-12
5.54185e-11
8.21533e-12
5.09993e-11
8.83984e-12
4.62764e-11
9.43314e-12
4.12567e-11
1.00288e-11
3.59574e-11
1.05749e-11
3.04005e-11
1.10905e-11
2.46153e-11
1.15359e-11
1.86385e-11
1.19184e-11
1.25115e-11
1.22113e-11
6.28199e-12
1.24157e-11
1.2518e-11
9.78699e-11
1.70962e-14
9.78532e-11
5.15429e-14
9.78249e-11
8.67968e-14
9.77848e-11
1.23317e-13
9.77322e-11
1.61749e-13
9.76664e-11
2.02667e-13
9.75862e-11
2.46656e-13
9.74905e-11
2.9437e-13
9.73778e-11
3.46584e-13
9.72464e-11
4.03949e-13
9.70944e-11
4.67425e-13
9.69194e-11
5.37896e-13
9.67189e-11
6.16373e-13
9.64899e-11
7.03947e-13
9.62289e-11
8.01899e-13
9.59321e-11
9.11584e-13
9.55953e-11
1.03445e-12
9.52135e-11
1.17201e-12
9.47814e-11
1.32634e-12
9.42926e-11
1.49897e-12
9.37408e-11
1.69261e-12
9.3118e-11
1.90851e-12
9.24162e-11
2.15081e-12
9.16256e-11
2.41957e-12
9.07368e-11
2.72114e-12
8.97376e-11
3.0533e-12
8.86171e-11
3.42574e-12
8.73609e-11
3.83242e-12
8.59559e-11
4.28814e-12
8.43859e-11
4.77967e-12
8.26359e-11
5.33002e-12
8.06884e-11
5.91467e-12
7.85266e-11
6.56808e-12
7.61331e-11
7.24968e-12
7.34897e-11
8.00801e-12
7.05812e-11
8.78308e-12
6.73895e-11
9.63688e-12
6.3904e-11
1.04909e-11
6.01098e-11
1.14146e-11
5.6003e-11
1.23182e-11
5.15767e-11
1.32661e-11
4.68355e-11
1.41703e-11
4.17856e-11
1.5078e-11
3.64433e-11
1.59134e-11
3.08304e-11
1.67022e-11
2.49769e-11
1.73859e-11
1.89206e-11
1.7973e-11
1.27051e-11
1.84238e-11
6.38045e-12
1.87382e-11
1.88959e-11
9.79032e-11
2.24184e-14
9.78872e-11
6.75326e-14
9.78603e-11
1.13724e-13
9.7822e-11
1.61613e-13
9.77718e-11
2.11949e-13
9.77089e-11
2.65549e-13
9.76323e-11
3.23204e-13
9.75409e-11
3.85809e-13
9.74333e-11
4.54198e-13
9.73078e-11
5.29467e-13
9.71625e-11
6.12715e-13
9.69952e-11
7.05108e-13
9.68035e-11
8.08106e-13
9.65844e-11
9.2308e-13
9.63346e-11
1.05166e-12
9.60506e-11
1.19559e-12
9.57281e-11
1.357e-12
9.53623e-11
1.53773e-12
9.4948e-11
1.74068e-12
9.44792e-11
1.96765e-12
9.39496e-11
2.22244e-12
9.33512e-11
2.5067e-12
9.26765e-11
2.82591e-12
9.19154e-11
3.18022e-12
9.10591e-11
3.57813e-12
9.0095e-11
4.01678e-12
8.90126e-11
4.50929e-12
8.77968e-11
5.04724e-12
8.64353e-11
5.65143e-12
8.49106e-11
6.30306e-12
8.32082e-11
7.03505e-12
8.1309e-11
7.81203e-12
7.91962e-11
8.68472e-12
7.68504e-11
9.59307e-12
7.42526e-11
1.06109e-11
7.1386e-11
1.1647e-11
6.82295e-11
1.27995e-11
6.47724e-11
1.39456e-11
6.09945e-11
1.51995e-11
5.68928e-11
1.64182e-11
5.24547e-11
1.77113e-11
4.76857e-11
1.89389e-11
4.2589e-11
2.01815e-11
3.71803e-11
2.1323e-11
3.14821e-11
2.24066e-11
2.55242e-11
2.33459e-11
1.93475e-11
2.4155e-11
1.29976e-11
2.47768e-11
6.5293e-12
2.5211e-11
2.5429e-11
9.79367e-11
2.74298e-14
9.79217e-11
8.25436e-14
9.78965e-11
1.38908e-13
9.78607e-11
1.97472e-13
9.78136e-11
2.59041e-13
9.77546e-11
3.24558e-13
9.76827e-11
3.95031e-13
9.7597e-11
4.71551e-13
9.7496e-11
5.5516e-13
9.73782e-11
6.47297e-13
9.72418e-11
7.49118e-13
9.70847e-11
8.62182e-13
9.69045e-11
9.88247e-13
9.66986e-11
1.12902e-12
9.64637e-11
1.28655e-12
9.61964e-11
1.46285e-12
9.58927e-11
1.66067e-12
9.5548e-11
1.88236e-12
9.51574e-11
2.13138e-12
9.47148e-11
2.40996e-12
9.42143e-11
2.72308e-12
9.36482e-11
3.07251e-12
9.3009e-11
3.46531e-12
9.22869e-11
3.9017e-12
9.14733e-11
4.39215e-12
9.05555e-11
4.93353e-12
8.95232e-11
5.54223e-12
8.83611e-11
6.20778e-12
8.70568e-11
6.95661e-12
8.55923e-11
7.76527e-12
8.39525e-11
8.67585e-12
8.21178e-11
9.64374e-12
8.00697e-11
1.07339e-11
7.77883e-11
1.18704e-11
7.5252e-11
1.31481e-11
7.24428e-11
1.44513e-11
6.93365e-11
1.59061e-11
6.59198e-11
1.73567e-11
6.21698e-11
1.89488e-11
5.80795e-11
2.05022e-11
5.36341e-11
2.21549e-11
4.88344e-11
2.3732e-11
4.36817e-11
2.53314e-11
3.81892e-11
2.68088e-11
3.23789e-11
2.82132e-11
2.62815e-11
2.94369e-11
1.99403e-11
3.0492e-11
1.34052e-11
3.1306e-11
6.73697e-12
3.18746e-11
3.21608e-11
9.8e-11
3.19578e-14
9.79862e-11
9.63024e-14
9.7963e-11
1.62091e-13
9.79301e-11
2.30427e-13
9.78868e-11
3.02296e-13
9.78326e-11
3.78765e-13
9.77666e-11
4.61059e-13
9.76878e-11
5.50352e-13
9.75948e-11
6.48088e-13
9.74865e-11
7.55658e-13
9.73609e-11
8.74661e-13
9.72162e-11
1.00687e-12
9.70503e-11
1.1542e-12
9.68605e-11
1.31883e-12
9.66439e-11
1.50315e-12
9.63971e-11
1.70958e-12
9.61166e-11
1.94125e-12
9.57978e-11
2.20106e-12
9.54364e-11
2.49297e-12
9.50262e-11
2.81991e-12
9.45619e-11
3.18769e-12
9.40358e-11
3.59835e-12
9.34411e-11
4.06053e-12
9.27679e-11
4.57446e-12
9.2008e-11
5.15294e-12
9.11486e-11
5.79212e-12
9.01803e-11
6.51221e-12
8.90864e-11
7.30035e-12
8.78561e-11
8.18964e-12
8.64689e-11
9.15047e-12
8.49116e-11
1.02374e-11
8.31606e-11
1.13918e-11
8.11994e-11
1.27012e-11
7.90034e-11
1.40627e-11
7.65503e-11
1.56094e-11
7.38192e-11
1.71782e-11
7.07803e-11
1.89553e-11
6.74214e-11
2.07117e-11
6.37069e-11
2.2675e-11
5.96353e-11
2.45715e-11
5.51769e-11
2.66254e-11
5.0336e-11
2.85729e-11
4.51077e-11
3.05713e-11
3.95033e-11
3.24157e-11
3.35461e-11
3.4181e-11
2.72651e-11
3.57223e-11
2.07102e-11
3.70562e-11
1.39339e-11
3.80882e-11
7.00643e-12
3.88101e-11
3.91741e-11
9.80622e-11
3.60203e-14
9.80499e-11
1.08641e-13
9.80291e-11
1.82905e-13
9.79995e-11
2.59982e-13
9.79607e-11
3.41072e-13
9.79121e-11
4.27373e-13
9.7853e-11
5.20217e-13
9.77822e-11
6.2112e-13
9.76988e-11
7.31499e-13
9.76015e-11
8.52955e-13
9.74887e-11
9.87456e-13
9.73586e-11
1.13693e-12
9.72093e-11
1.30352e-12
9.70384e-11
1.48971e-12
9.68433e-11
1.69828e-12
9.66207e-11
1.93203e-12
9.63674e-11
2.19458e-12
9.60793e-11
2.48908e-12
9.57521e-11
2.82027e-12
9.53802e-11
3.19154e-12
9.49586e-11
3.60946e-12
9.44797e-11
4.07673e-12
9.39375e-11
4.60312e-12
9.33219e-11
5.18918e-12
9.26256e-11
5.84984e-12
9.18354e-11
6.58089e-12
9.09424e-11
7.40602e-12
8.99299e-11
8.31069e-12
8.87867e-11
9.33396e-12
8.74923e-11
1.04418e-11
8.60321e-11
1.16989e-11
8.43827e-11
1.30369e-11
8.25244e-11
1.45608e-11
8.04327e-11
1.61487e-11
7.80809e-11
1.79621e-11
7.54468e-11
1.98053e-11
7.24956e-11
2.19062e-11
6.92109e-11
2.39881e-11
6.55537e-11
2.63302e-11
6.15137e-11
2.86022e-11
5.70597e-11
3.10753e-11
5.21849e-11
3.34373e-11
4.68808e-11
3.58695e-11
4.11531e-11
3.81326e-11
3.50228e-11
4.03041e-11
2.85202e-11
4.22146e-11
2.16974e-11
4.3871e-11
1.46156e-11
4.51604e-11
7.35449e-12
4.60629e-11
4.65198e-11
9.81224e-11
3.95723e-14
9.81117e-11
1.19376e-13
9.80936e-11
2.00979e-13
9.80679e-11
2.85691e-13
9.80341e-11
3.74806e-13
9.79918e-11
4.69687e-13
9.79403e-11
5.71755e-13
9.78787e-11
6.82693e-13
9.78061e-11
8.0408e-13
9.77213e-11
9.37765e-13
9.7623e-11
1.08578e-12
9.75095e-11
1.25035e-12
9.73792e-11
1.43388e-12
9.72298e-11
1.63903e-12
9.70591e-11
1.86905e-12
9.68642e-11
2.12691e-12
9.66421e-11
2.41678e-12
9.6389e-11
2.74209e-12
9.61011e-11
3.10831e-12
9.57733e-11
3.51916e-12
9.5401e-11
3.98212e-12
9.49769e-11
4.50044e-12
9.44959e-11
5.08493e-12
9.39477e-11
5.73672e-12
9.33263e-11
6.47261e-12
9.26178e-11
7.28823e-12
9.18152e-11
8.21095e-12
9.08997e-11
9.22427e-12
8.98632e-11
1.03744e-11
8.86808e-11
1.16211e-11
8.73429e-11
1.30431e-11
8.58185e-11
1.45568e-11
8.40934e-11
1.62953e-11
8.21339e-11
1.8102e-11
7.99159e-11
2.01931e-11
7.74106e-11
2.23033e-11
7.4575e-11
2.47584e-11
7.13971e-11
2.7159e-11
6.78109e-11
2.99354e-11
6.38248e-11
3.25837e-11
5.93707e-11
3.5549e-11
5.44531e-11
3.83552e-11
4.90537e-11
4.12875e-11
4.31702e-11
4.40208e-11
3.6829e-11
4.66622e-11
3.00513e-11
4.90002e-11
2.29029e-11
5.10343e-11
1.54462e-11
5.2627e-11
7.77905e-12
5.37429e-11
5.43101e-11
9.82094e-11
4.25048e-14
9.82005e-11
1.28286e-13
9.81855e-11
2.16026e-13
9.8164e-11
3.07131e-13
9.81359e-11
4.02952e-13
9.81006e-11
5.04997e-13
9.80574e-11
6.14871e-13
9.80059e-11
7.34196e-13
9.79452e-11
8.64809e-13
9.78742e-11
1.00873e-12
9.77919e-11
1.16814e-12
9.76968e-11
1.34544e-12
9.75874e-11
1.54328e-12
9.74618e-11
1.76454e-12
9.73181e-11
2.01277e-12
9.71537e-11
2.29121e-12
9.69662e-11
2.60441e-12
9.67519e-11
2.95621e-12
9.65077e-11
3.35261e-12
9.62287e-11
3.79779e-12
9.59112e-11
4.2999e-12
9.55482e-11
4.86283e-12
9.51351e-11
5.49846e-12
9.46622e-11
6.2085e-12
9.41241e-11
7.01146e-12
9.35073e-11
7.90327e-12
9.28052e-11
8.91425e-12
9.19992e-11
1.00274e-11
9.1081e-11
1.12942e-11
9.00266e-11
1.26712e-11
8.88238e-11
1.42478e-11
8.74435e-11
1.59312e-11
8.58663e-11
1.78744e-11
8.40607e-11
1.98998e-11
8.19945e-11
2.22606e-11
7.96397e-11
2.46483e-11
7.69455e-11
2.74521e-11
7.38936e-11
3.01991e-11
7.04164e-11
3.34093e-11
6.65031e-11
3.64834e-11
6.20923e-11
3.99529e-11
5.71606e-11
4.3271e-11
5.16834e-11
4.67544e-11
4.56473e-11
5.004e-11
3.90699e-11
5.32271e-11
3.19753e-11
5.60784e-11
2.44284e-11
5.85679e-11
1.65065e-11
6.05338e-11
8.32232e-12
6.19137e-11
6.26186e-11
9.82922e-11
4.48465e-14
9.82852e-11
1.35316e-13
9.82733e-11
2.27865e-13
9.82565e-11
3.23997e-13
9.82343e-11
4.25091e-13
9.82066e-11
5.32748e-13
9.81727e-11
6.48761e-13
9.81321e-11
7.74772e-13
9.80842e-11
9.12712e-13
9.80282e-11
1.06476e-12
9.79631e-11
1.23324e-12
9.78879e-11
1.42065e-12
9.78012e-11
1.62999e-12
9.77014e-11
1.86424e-12
9.75872e-11
2.1271e-12
9.74561e-11
2.42224e-12
9.73062e-11
2.75439e-12
9.71344e-11
3.12786e-12
9.69383e-11
3.54906e-12
9.67131e-11
4.02264e-12
9.64562e-11
4.55732e-12
9.61609e-11
5.15769e-12
9.58238e-11
5.83651e-12
9.54352e-11
6.59619e-12
9.49917e-11
7.45681e-12
9.44785e-11
8.41486e-12
9.38926e-11
9.50335e-12
9.32121e-11
1.0705e-11
9.24349e-11
1.20769e-11
9.15291e-11
1.35724e-11
9.04931e-11
1.52928e-11
8.92837e-11
1.71334e-11
8.78966e-11
1.92753e-11
8.628e-11
2.15062e-11
8.4416e-11
2.41442e-11
8.22584e-11
2.6793e-11
7.97521e-11
2.99844e-11
7.68867e-11
3.3051e-11
7.35388e-11
3.67875e-11
6.97578e-11
4.02551e-11
6.53797e-11
4.43613e-11
6.04169e-11
4.82344e-11
5.48413e-11
5.23582e-11
4.86078e-11
5.62825e-11
4.17519e-11
6.01084e-11
3.42686e-11
6.35756e-11
2.62487e-11
6.66103e-11
1.77678e-11
6.90309e-11
8.96955e-12
7.07314e-11
7.16056e-11
9.83697e-11
4.65044e-14
9.83646e-11
1.4034e-13
9.83562e-11
2.36347e-13
9.83442e-11
3.35991e-13
9.83284e-11
4.40882e-13
9.83085e-11
5.52593e-13
9.82843e-11
6.72933e-13
9.82554e-11
8.03693e-13
9.82212e-11
9.46955e-13
9.8181e-11
1.10495e-12
9.81342e-11
1.28001e-12
9.808e-11
1.47484e-12
9.80174e-11
1.69263e-12
9.79451e-11
1.93642e-12
9.78621e-11
2.21014e-12
9.77665e-11
2.51773e-12
9.76569e-11
2.86413e-12
9.75305e-11
3.25407e-12
9.73855e-11
3.69417e-12
9.72182e-11
4.18961e-12
9.70261e-11
4.74972e-12
9.68034e-11
5.37958e-12
9.65479e-11
6.09269e-12
9.62502e-11
6.8925e-12
9.5908e-11
7.80004e-12
9.55075e-11
8.81312e-12
9.5046e-11
9.96641e-12
9.45033e-11
1.12441e-11
9.38761e-11
1.27064e-11
9.31358e-11
1.43073e-11
9.22761e-11
1.61553e-11
9.126e-11
1.81418e-11
9.0073e-11
2.04655e-11
8.86723e-11
2.28965e-11
8.70244e-11
2.57946e-11
8.5091e-11
2.87131e-11
8.28015e-11
3.22742e-11
8.01401e-11
3.56964e-11
7.69869e-11
3.99366e-11
7.33513e-11
4.38718e-11
6.91117e-11
4.85907e-11
6.4207e-11
5.31154e-11
5.85908e-11
5.79578e-11
5.22044e-11
6.26431e-11
4.50565e-11
6.7236e-11
3.715e-11
7.14566e-11
2.85618e-11
7.51773e-11
1.93915e-11
7.81783e-11
9.80643e-12
8.02961e-11
8.13914e-11
9.84703e-11
4.74597e-14
9.84674e-11
1.43202e-13
9.84625e-11
2.41209e-13
9.84556e-11
3.42942e-13
9.84464e-11
4.50036e-13
9.84349e-11
5.64153e-13
9.84208e-11
6.87038e-13
9.84038e-11
8.20623e-13
9.83838e-11
9.67014e-13
9.83602e-11
1.12854e-12
9.83325e-11
1.30766e-12
9.83003e-11
1.50707e-12
9.8263e-11
1.73001e-12
9.82196e-11
1.97973e-12
9.81695e-11
2.26035e-12
9.81112e-11
2.5759e-12
9.80439e-11
2.93157e-12
9.79655e-11
3.33237e-12
9.78749e-11
3.78508e-12
9.77687e-11
4.29545e-12
9.76461e-11
4.87303e-12
9.75013e-11
5.52369e-12
9.73339e-11
6.26133e-12
9.71346e-11
7.09065e-12
9.69039e-11
8.03302e-12
9.66265e-11
9.08833e-12
9.63054e-11
1.02917e-11
9.59151e-11
1.16305e-11
9.54629e-11
1.31658e-11
9.49081e-11
1.48555e-11
9.42642e-11
1.68112e-11
9.3469e-11
1.89265e-11
9.25415e-11
2.14119e-11
9.13963e-11
2.40257e-11
9.00454e-11
2.71738e-11
8.83981e-11
3.03386e-11
8.64106e-11
3.43007e-11
8.40619e-11
3.80198e-11
8.11293e-11
4.29163e-11
7.78144e-11
4.71674e-11
7.36711e-11
5.27787e-11
6.87477e-11
5.80416e-11
6.30755e-11
6.36698e-11
5.64691e-11
6.92667e-11
4.8987e-11
7.47544e-11
4.05545e-11
7.99135e-11
3.12942e-11
8.44702e-11
2.13007e-11
8.81974e-11
1.07911e-11
9.08335e-11
9.2208e-11
9.85627e-11
4.77753e-14
9.8562e-11
1.43975e-13
9.85608e-11
2.42421e-13
9.8559e-11
3.44704e-13
9.85567e-11
4.52367e-13
9.85537e-11
5.67153e-13
9.85499e-11
6.9078e-13
9.85453e-11
8.25203e-13
9.85398e-11
9.72556e-13
9.85332e-11
1.13515e-12
9.85252e-11
1.31562e-12
9.85157e-11
1.51659e-12
9.85043e-11
1.74139e-12
9.84906e-11
1.99339e-12
9.84743e-11
2.27667e-12
9.84546e-11
2.59556e-12
9.8431e-11
2.95522e-12
9.84023e-11
3.36088e-12
9.8368e-11
3.81961e-12
9.83254e-11
4.3375e-12
9.82747e-11
4.92419e-12
9.82111e-11
5.5864e-12
9.81352e-11
6.33802e-12
9.8039e-11
7.1852e-12
9.79241e-11
8.1493e-12
9.77771e-11
9.23262e-12
9.76009e-11
1.047e-11
9.73741e-11
1.18529e-11
9.71013e-11
1.34416e-11
9.67495e-11
1.52007e-11
9.63235e-11
1.72413e-11
9.57754e-11
1.94648e-11
9.51058e-11
2.20868e-11
9.42517e-11
2.48662e-11
9.31935e-11
2.82375e-11
9.18682e-11
3.16461e-11
9.01937e-11
3.59787e-11
8.81584e-11
4.00335e-11
8.55406e-11
4.55313e-11
8.24626e-11
5.02215e-11
7.86711e-11
5.65576e-11
7.39993e-11
6.26773e-11
6.83943e-11
6.92493e-11
6.1695e-11
7.59265e-11
5.38905e-11
8.25265e-11
4.49269e-11
8.8838e-11
3.48722e-11
9.44918e-11
2.38492e-11
9.91868e-11
1.21166e-11
1.02537e-10
1.04296e-10
9.86457e-11
4.73e-14
9.86471e-11
1.42536e-13
9.86495e-11
2.40005e-13
9.8653e-11
3.41253e-13
9.86575e-11
4.4787e-13
9.8663e-11
5.61577e-13
9.86698e-11
6.84042e-13
9.86777e-11
8.17291e-13
9.86868e-11
9.63398e-13
9.86973e-11
1.12465e-12
9.87093e-11
1.30365e-12
9.87228e-11
1.50315e-12
9.87377e-11
1.72643e-12
9.87542e-11
1.97687e-12
9.87724e-11
2.25855e-12
9.8792e-11
2.57589e-12
9.88133e-11
2.93411e-12
9.88354e-11
3.33857e-12
9.8859e-11
3.79639e-12
9.88822e-11
4.31397e-12
9.89062e-11
4.9009e-12
9.89271e-11
5.56474e-12
9.89476e-11
6.31905e-12
9.89596e-11
7.17166e-12
9.89687e-11
8.14294e-12
9.89598e-11
9.23884e-12
9.89433e-11
1.04914e-11
9.88916e-11
1.18997e-11
9.88243e-11
1.35175e-11
9.86921e-11
1.53245e-11
9.85304e-11
1.74177e-11
9.82532e-11
1.97278e-11
9.79218e-11
2.24422e-11
9.73935e-11
2.53717e-11
9.67616e-11
2.89071e-11
9.5818e-11
3.25553e-11
9.46426e-11
3.72102e-11
9.30739e-11
4.15554e-11
9.08013e-11
4.78788e-11
8.8584e-11
5.23945e-11
8.49789e-11
6.02237e-11
8.0159e-11
6.75099e-11
7.4661e-11
7.47987e-11
6.7813e-11
8.28086e-11
5.96753e-11
9.07138e-11
5.00346e-11
9.85214e-11
3.90269e-11
1.05546e-10
2.67889e-11
1.11464e-10
1.36437e-11
1.1572e-10
1.17974e-10
9.87478e-11
4.60325e-14
9.87514e-11
1.38905e-13
9.87575e-11
2.33955e-13
9.87661e-11
3.32652e-13
9.87774e-11
4.3661e-13
9.87915e-11
5.47455e-13
9.88086e-11
6.66936e-13
9.88289e-11
7.96967e-13
9.88527e-11
9.39594e-13
9.88803e-11
1.09703e-12
9.89121e-11
1.27184e-12
9.89484e-11
1.46683e-12
9.89898e-11
1.68512e-12
9.90364e-11
1.93017e-12
9.90891e-11
2.20597e-12
9.9148e-11
2.51685e-12
9.92141e-11
2.86809e-12
9.92873e-11
3.26512e-12
9.93691e-11
3.71487e-12
9.94583e-11
4.22419e-12
9.95575e-11
4.80222e-12
9.9664e-11
5.45731e-12
9.97813e-11
6.20262e-12
9.99038e-11
7.0474e-12
1.00038e-10
8.01077e-12
1.00171e-10
9.1022e-12
1.00314e-10
1.03508e-11
1.00447e-10
1.17626e-11
1.00583e-10
1.33854e-11
1.00687e-10
1.52126e-11
1.00781e-10
1.7329e-11
1.00806e-10
1.96914e-11
1.00792e-10
2.24648e-11
1.00642e-10
2.55037e-11
1.0039e-10
2.91702e-11
9.99026e-11
3.30188e-11
9.91529e-11
3.7972e-11
9.80642e-11
4.26138e-11
9.61996e-11
4.97471e-11
9.41983e-11
5.43735e-11
9.14659e-11
3.39892e-11
2.89591e-11
8.74515e-11
3.31458e-11
3.83203e-11
8.22339e-11
3.73763e-11
4.25993e-11
7.54534e-11
4.21937e-11
4.73352e-11
6.70477e-11
4.707e-11
5.19946e-11
5.68364e-11
5.20616e-11
5.66064e-11
4.47716e-11
5.68237e-11
6.07298e-11
3.09709e-11
6.10989e-11
6.4113e-11
1.58478e-11
6.44455e-11
6.63533e-11
6.65638e-11
6.72176e-11
9.88345e-11
4.41392e-14
9.88401e-11
1.33222e-13
9.88498e-11
2.24333e-13
9.88634e-11
3.18968e-13
9.88814e-11
4.18652e-13
9.89039e-11
5.24959e-13
9.89312e-11
6.3967e-13
9.89637e-11
7.64439e-13
9.90019e-11
9.01427e-13
9.90463e-11
1.05261e-12
9.90976e-11
1.22055e-12
9.91564e-11
1.40801e-12
9.92236e-11
1.61793e-12
9.93e-11
1.85375e-12
9.93868e-11
2.1193e-12
9.94846e-11
2.41896e-12
9.95952e-11
2.75767e-12
9.97192e-11
3.14096e-12
9.9859e-11
3.57549e-12
1.00014e-10
4.06831e-12
1.00189e-10
4.6282e-12
1.00382e-10
5.264e-12
1.00598e-10
5.98797e-12
1.00833e-10
6.81115e-12
1.01096e-10
7.7504e-12
1.01376e-10
8.81951e-12
1.01689e-10
1.00424e-11
1.02011e-10
1.1435e-11
1.02373e-10
1.30329e-11
1.02723e-10
1.48529e-11
1.03119e-10
1.69494e-11
1.03459e-10
1.93349e-11
1.03853e-10
2.2098e-11
1.04096e-10
2.52322e-11
1.0442e-10
2.88905e-11
1.0438e-10
3.30111e-11
1.04548e-10
3.78785e-11
1.03796e-10
4.32832e-11
1.03883e-10
4.97932e-11
5.15635e-11
5.68444e-11
4.96881e-11
-2.96498e-11
3.05611e-11
5.10166e-11
-4.84613e-11
4.75696e-11
3.39423e-11
-4.68967e-11
4.5666e-11
3.85536e-11
-4.45e-11
4.29526e-11
4.3719e-11
-4.13478e-11
3.93014e-11
4.9115e-11
-3.71035e-11
3.45154e-11
5.46597e-11
-3.16787e-11
2.8532e-11
5.99813e-11
-2.50929e-11
2.14138e-11
6.47873e-11
-1.74609e-11
1.33126e-11
6.86039e-11
-8.96899e-12
4.51992e-12
7.10282e-11
9.89194e-11
4.15775e-14
9.89272e-11
1.25425e-13
9.89403e-11
2.11226e-13
9.89589e-11
3.00396e-13
9.89832e-11
3.94334e-13
9.90137e-11
4.9449e-13
9.90508e-11
6.02569e-13
9.9095e-11
7.2021e-13
9.9147e-11
8.49385e-13
9.92076e-11
9.91995e-13
9.92777e-11
1.15049e-12
9.93582e-11
1.32748e-12
9.94505e-11
1.52571e-12
9.95556e-11
1.74856e-12
9.96753e-11
1.99968e-12
9.98109e-11
2.28329e-12
9.99646e-11
2.60402e-12
1.00138e-10
2.96741e-12
1.00334e-10
3.37967e-12
1.00554e-10
3.84782e-12
1.00803e-10
4.38022e-12
1.01079e-10
4.98609e-12
1.01392e-10
5.67649e-12
1.01737e-10
6.46389e-12
1.02127e-10
7.3629e-12
1.02552e-10
8.39055e-12
1.03031e-10
9.56636e-12
1.03547e-10
1.0914e-11
1.04126e-10
1.2459e-11
1.04734e-10
1.4236e-11
1.05414e-10
1.6277e-11
1.061e-10
1.86354e-11
1.06865e-10
2.13449e-11
1.07577e-10
2.44996e-11
1.08379e-10
2.81075e-11
1.08981e-10
3.23756e-11
1.09739e-10
3.71523e-11
1.09909e-10
4.30578e-11
1.10641e-10
4.91239e-11
5.62837e-11
5.78245e-11
5.3271e-11
-3.08606e-11
3.14352e-11
5.59852e-11
-5.26964e-11
5.20271e-11
-3.50559e-11
3.55776e-11
-5.15419e-11
5.05681e-11
-4.00407e-11
4.09152e-11
-4.96181e-11
4.82304e-11
-4.55786e-11
4.69056e-11
-4.6745e-11
4.47682e-11
-5.14682e-11
5.34152e-11
-4.2621e-11
3.98741e-11
-5.74926e-11
6.02322e-11
-3.67726e-11
3.334e-11
-6.34747e-11
6.69028e-11
-2.94936e-11
2.5313e-11
-6.89161e-11
7.30923e-11
-2.07451e-11
1.58807e-11
-7.32506e-11
7.81149e-11
-1.07375e-11
5.41974e-12
-7.5963e-11
8.12913e-11
9.90014e-11
3.83447e-14
9.90112e-11
1.15702e-13
9.90275e-11
1.94934e-13
9.90506e-11
2.7721e-13
9.9081e-11
3.63946e-13
9.9119e-11
4.56486e-13
9.91654e-11
5.56234e-13
9.92207e-11
6.64896e-13
9.92859e-11
7.84199e-13
9.93619e-11
9.16028e-13
9.94498e-11
1.0626e-12
9.95509e-11
1.22633e-12
9.96669e-11
1.40973e-12
9.97994e-11
1.61607e-12
9.99504e-11
1.84873e-12
1.00122e-10
2.11157e-12
1.00317e-10
2.40909e-12
1.00538e-10
2.74655e-12
1.00788e-10
3.12963e-12
1.0107e-10
3.56523e-12
1.0139e-10
4.06099e-12
1.01749e-10
4.62635e-12
1.02156e-10
5.27102e-12
1.0261e-10
6.00841e-12
1.03125e-10
6.85066e-12
1.03695e-10
7.8177e-12
1.04343e-10
8.92385e-12
1.05051e-10
1.02003e-11
1.05858e-10
1.16614e-11
1.06724e-10
1.33598e-11
1.07716e-10
1.53015e-11
1.0875e-10
1.75835e-11
1.09941e-10
2.01803e-11
1.11128e-10
2.32848e-11
1.12503e-10
2.6774e-11
1.13764e-10
3.1069e-11
1.1523e-10
3.57521e-11
1.16373e-10
4.18408e-11
1.17595e-10
4.80014e-11
6.09435e-11
5.69905e-11
5.7373e-11
-3.13979e-11
3.14951e-11
6.10588e-11
-5.74475e-11
5.71258e-11
-3.6346e-11
3.6561e-11
-5.69324e-11
5.6311e-11
-4.20256e-11
4.25875e-11
-5.56546e-11
5.45873e-11
-4.84838e-11
4.95316e-11
-5.33548e-11
5.16128e-11
-5.55997e-11
5.73593e-11
-4.98122e-11
4.68066e-11
-6.28286e-11
6.589e-11
-4.3229e-11
3.95676e-11
-7.05258e-11
7.42243e-11
-3.52845e-11
3.05447e-11
-7.77041e-11
8.24649e-11
-2.52195e-11
1.9424e-11
-8.35525e-11
8.93608e-11
-1.31963e-11
6.67868e-12
-8.72422e-11
9.37735e-11
9.90763e-11
3.45734e-14
9.90877e-11
1.04296e-13
9.91069e-11
1.75663e-13
9.91344e-11
2.49795e-13
9.91704e-11
3.27923e-13
9.92155e-11
4.11378e-13
9.92704e-11
5.01331e-13
9.9336e-11
5.99294e-13
9.94133e-11
7.06907e-13
9.95035e-11
8.25855e-13
9.96079e-11
9.58152e-13
9.97283e-11
1.10597e-12
9.98664e-11
1.27165e-12
1.00024e-10
1.45818e-12
1.00205e-10
1.66848e-12
1.0041e-10
1.90628e-12
1.00643e-10
2.17567e-12
1.00908e-10
2.48145e-12
1.01209e-10
2.82883e-12
1.0155e-10
3.22429e-12
1.01937e-10
3.67468e-12
1.02373e-10
4.18934e-12
1.02868e-10
4.77653e-12
1.03425e-10
5.44992e-12
1.04058e-10
6.21946e-12
1.04766e-10
7.10667e-12
1.05572e-10
8.1213e-12
1.06467e-10
9.29933e-12
1.07488e-10
1.06462e-11
1.08612e-10
1.22264e-11
1.09895e-10
1.40274e-11
1.11291e-10
1.61742e-11
1.12884e-10
1.86008e-11
1.14581e-10
2.15659e-11
1.16519e-10
2.48576e-11
1.18513e-10
2.90426e-11
1.20778e-10
3.35222e-11
1.22969e-10
3.95967e-11
1.25359e-10
4.56723e-11
6.56534e-11
5.47746e-11
6.18378e-11
-3.11165e-11
3.07243e-11
6.62062e-11
-6.27044e-11
6.28209e-11
-3.68651e-11
3.66712e-11
-6.30513e-11
6.29156e-11
-4.32261e-11
4.33294e-11
-6.26716e-11
6.21413e-11
-5.07217e-11
5.12586e-11
-6.11704e-11
6.01585e-11
-5.95874e-11
6.06475e-11
-2.95953e-11
-3.5592e-11
2.85662e-11
3.62534e-11
-2.61815e-11
-4.14127e-11
2.49893e-11
4.23221e-11
-2.13653e-11
-4.65212e-11
1.97958e-11
4.78877e-11
-1.48034e-11
-5.06418e-11
1.28411e-11
5.24766e-11
-6.68792e-12
5.52215e-11
-5.30522e-11
4.46558e-12
9.91426e-11
3.02746e-14
9.91557e-11
9.12445e-14
9.91777e-11
1.53672e-13
9.92089e-11
2.18571e-13
9.92499e-11
2.86923e-13
9.93014e-11
3.59866e-13
9.93642e-11
4.38604e-13
9.9439e-11
5.24413e-13
9.95273e-11
6.18639e-13
9.96303e-11
7.22823e-13
9.97498e-11
8.38703e-13
9.98875e-11
9.68238e-13
1.00046e-10
1.11355e-12
1.00227e-10
1.27714e-12
1.00434e-10
1.46165e-12
1.00669e-10
1.67051e-12
1.00938e-10
1.90713e-12
1.01243e-10
2.17598e-12
1.01591e-10
2.4815e-12
1.01985e-10
2.82982e-12
1.02434e-10
3.22679e-12
1.02941e-10
3.68106e-12
1.0352e-10
4.19966e-12
1.04172e-10
4.79594e-12
1.04917e-10
5.4776e-12
1.05754e-10
6.26629e-12
1.06712e-10
7.16829e-12
1.07785e-10
8.22133e-12
1.09015e-10
9.42427e-12
1.10385e-10
1.08469e-11
1.11962e-10
1.24655e-11
1.13704e-10
1.44165e-11
1.15711e-10
1.66164e-11
1.17908e-10
1.93435e-11
1.20434e-10
2.23675e-11
1.23168e-10
2.62703e-11
1.26262e-10
3.04784e-11
1.29581e-10
3.62218e-11
1.33158e-10
4.21646e-11
7.04146e-11
5.08622e-11
6.658e-11
-2.98984e-11
2.89338e-11
7.1504e-11
-6.83933e-11
6.90557e-11
-3.64076e-11
3.5687e-11
-6.98578e-11
7.03388e-11
-4.33116e-11
4.28123e-11
-7.07553e-11
7.0848e-11
-5.16281e-11
5.15488e-11
-7.06311e-11
6.99799e-11
-6.14419e-11
6.2132e-11
-3.58e-11
-3.81458e-11
3.49925e-11
3.85903e-11
-3.25682e-11
-4.52479e-11
3.14304e-11
4.61576e-11
-2.73716e-11
-5.24559e-11
2.56671e-11
5.40263e-11
-1.95171e-11
-5.87849e-11
1.71126e-11
6.11188e-11
-8.9922e-12
6.56957e-11
-6.27808e-11
6.05311e-12
9.92025e-11
2.54592e-14
9.9217e-11
7.67414e-14
9.92414e-11
1.29296e-13
9.92761e-11
1.83919e-13
9.93215e-11
2.41491e-13
9.93785e-11
3.02863e-13
9.9448e-11
3.69103e-13
9.9531e-11
4.41374e-13
9.9629e-11
5.20696e-13
9.97433e-11
6.0847e-13
9.9876e-11
7.06103e-13
1.00029e-10
8.15269e-13
1.00205e-10
9.37792e-13
1.00406e-10
1.07569e-12
1.00636e-10
1.2314e-12
1.00899e-10
1.40769e-12
1.01199e-10
1.60749e-12
1.0154e-10
1.83472e-12
1.01929e-10
2.093e-12
1.0237e-10
2.38787e-12
1.02874e-10
2.72401e-12
1.03444e-10
3.10924e-12
1.04096e-10
3.54919e-12
1.04834e-10
4.05625e-12
1.05678e-10
4.63601e-12
1.06632e-10
5.30895e-12
1.07725e-10
6.07853e-12
1.0896e-10
6.98139e-12
1.10378e-10
8.01187e-12
1.11977e-10
9.2394e-12
1.13818e-10
1.06331e-11
1.15891e-10
1.2331e-11
1.18281e-10
1.42392e-11
1.20967e-10
1.66388e-11
1.24064e-10
1.92908e-11
1.27534e-10
2.2772e-11
1.31513e-10
2.65307e-11
1.35961e-10
3.17326e-11
1.40954e-10
3.72176e-11
7.50997e-11
4.52161e-11
7.14418e-11
-2.76077e-11
2.60536e-11
7.67509e-11
-7.43452e-11
7.56648e-11
-3.47584e-11
3.33925e-11
-7.71924e-11
7.84807e-11
-4.20186e-11
4.07182e-11
-7.9802e-11
8.08526e-11
-5.10737e-11
5.00358e-11
-8.17328e-11
8.21709e-11
-6.23099e-11
6.19012e-11
-4.30731e-11
-3.97146e-11
4.25551e-11
3.98844e-11
-4.09585e-11
-4.8827e-11
3.99985e-11
4.95948e-11
-3.61479e-11
-5.90982e-11
3.43275e-11
6.08304e-11
-2.70006e-11
-6.91428e-11
2.39151e-11
7.22039e-11
-1.28959e-11
8.02895e-11
-7.61139e-11
8.72535e-12
9.9252e-11
2.02556e-14
9.92677e-11
6.10894e-14
9.92941e-11
1.02912e-13
9.93316e-11
1.46373e-13
9.93809e-11
1.92241e-13
9.94426e-11
2.41179e-13
9.95178e-11
2.93888e-13
9.96077e-11
3.51438e-13
9.97138e-11
4.14604e-13
9.98378e-11
4.84529e-13
9.99815e-11
5.62391e-13
1.00147e-10
6.49376e-13
1.00338e-10
7.47041e-13
1.00557e-10
8.57024e-13
1.00807e-10
9.81295e-13
1.01093e-10
1.12199e-12
1.01419e-10
1.28153e-12
1.0179e-10
1.46306e-12
1.02214e-10
1.6695e-12
1.02696e-10
1.90539e-12
1.03247e-10
2.17432e-12
1.03872e-10
2.48307e-12
1.04587e-10
2.83572e-12
1.05399e-10
3.24281e-12
1.06329e-10
3.70856e-12
1.07385e-10
4.25049e-12
1.08597e-10
4.8704e-12
1.09973e-10
5.60019e-12
1.1156e-10
6.43337e-12
1.1336e-10
7.43054e-12
1.15442e-10
8.56345e-12
1.17808e-10
9.95141e-12
1.20552e-10
1.15144e-11
1.23679e-10
1.34915e-11
1.27308e-10
1.56895e-11
1.31466e-10
1.85853e-11
1.36275e-10
2.17583e-11
1.41833e-10
2.61366e-11
1.482e-10
3.08964e-11
7.94573e-11
3.77421e-11
7.61673e-11
-2.41586e-11
2.19893e-11
8.1703e-11
-8.02769e-11
8.23545e-11
-3.17136e-11
2.95982e-11
-8.47321e-11
8.70166e-11
-3.89829e-11
3.66891e-11
-8.94757e-11
9.18356e-11
-4.84031e-11
4.60531e-11
-9.42119e-11
9.63564e-11
-6.07081e-11
5.8585e-11
-5.17663e-11
-3.97404e-11
5.18042e-11
3.93751e-11
-5.20338e-11
-5.12332e-11
5.16446e-11
5.14509e-11
-4.94218e-11
-6.57815e-11
4.8128e-11
6.70107e-11
-3.94966e-11
-8.24159e-11
3.56566e-11
8.62957e-11
-2.02889e-11
1.02147e-10
-9.56964e-11
1.38917e-11
9.92905e-11
1.47379e-14
9.93072e-11
4.44638e-14
9.93351e-11
7.49562e-14
9.93749e-11
1.06583e-13
9.94271e-11
1.40004e-13
9.94926e-11
1.75674e-13
9.95724e-11
2.14094e-13
9.96678e-11
2.56045e-13
9.97804e-11
3.02006e-13
9.9912e-11
3.52977e-13
1.00065e-10
4.09785e-13
1.00241e-10
4.73187e-13
1.00443e-10
5.44388e-13
1.00676e-10
6.24613e-13
1.00942e-10
7.15247e-13
1.01246e-10
8.1798e-13
1.01593e-10
9.34429e-13
1.01989e-10
1.06697e-12
1.02441e-10
1.21781e-12
1.02956e-10
1.39025e-12
1.03544e-10
1.58693e-12
1.04213e-10
1.81291e-12
1.04979e-10
2.07112e-12
1.0585e-10
2.36963e-12
1.0685e-10
2.71112e-12
1.07988e-10
3.10942e-12
1.09296e-10
3.5649e-12
1.10789e-10
4.10292e-12
1.12511e-10
4.71657e-12
1.14479e-10
5.45479e-12
1.16759e-10
6.29226e-12
1.19373e-10
7.32549e-12
1.22413e-10
8.4868e-12
1.25919e-10
9.96908e-12
1.30011e-10
1.16156e-11
1.34768e-10
1.38056e-11
1.40337e-10
1.62146e-11
1.46883e-10
1.95608e-11
1.54561e-10
2.32513e-11
8.3212e-11
2.85579e-11
8.04951e-11
-1.95277e-11
1.67937e-11
8.60039e-11
-8.58144e-11
8.86904e-11
-2.71098e-11
2.42041e-11
-9.19779e-11
9.53757e-11
-3.38667e-11
3.04617e-11
-9.91386e-11
1.0308e-10
-4.2946e-11
3.90125e-11
-1.07328e-10
1.11746e-10
-5.53842e-11
5.09815e-11
-6.15622e-11
-3.70784e-11
6.25027e-11
3.58483e-11
-6.59055e-11
-5.0582e-11
6.67201e-11
4.96168e-11
-6.84186e-11
-7.05326e-11
7.06605e-11
3.60104e-11