/*--------------------------------*- C++ -*----------------------------------*\
| =========                 |                                                 |
| \\      /  F ield         | foam-extend: Open Source CFD                    |
|  \\    /   O peration     | Version:     4.0                                |
|   \\  /    A nd           | Web:         http://www.foam-extend.org         |
|    \\/     M anipulation  |                                                 |
\*---------------------------------------------------------------------------*/
FoamFile
{
    version     2.0;
    format      ascii;
    class       volVectorField;
    location    "0.0015";
    object      U;
}
// * * * * * * * * * * * * * * * * * * * * * * * * * * * * * * * * * * * * * //

dimensions      [0 1 -1 0 0 0 0];

internalField   nonuniform List<vector> 
28770
(
(0.00333068 9.68594e-08 0)
(0.00333028 2.93025e-07 0)
(0.00332948 4.94378e-07 0)
(0.00332827 7.02362e-07 0)
(0.00332663 9.21715e-07 0)
(0.00332453 1.15367e-06 0)
(0.00332193 1.40427e-06 0)
(0.00331882 1.67127e-06 0)
(0.00331513 1.96825e-06 0)
(0.0033108 2.2969e-06 0)
(0.00330578 2.65856e-06 0)
(0.00329998 3.05731e-06 0)
(0.00329333 3.50103e-06 0)
(0.00328572 4.00068e-06 0)
(0.00327705 4.5565e-06 0)
(0.00326718 5.17733e-06 0)
(0.00325597 5.87482e-06 0)
(0.00324327 6.65574e-06 0)
(0.00322887 7.52651e-06 0)
(0.00321263 8.50465e-06 0)
(0.00319424 9.60186e-06 0)
(0.00317355 1.08226e-05 0)
(0.00315017 1.21933e-05 0)
(0.00312393 1.37116e-05 0)
(0.00309434 1.54125e-05 0)
(0.00306123 1.72843e-05 0)
(0.00302395 1.9384e-05 0)
(0.00298239 2.16678e-05 0)
(0.0029357 2.42351e-05 0)
(0.00288384 2.69887e-05 0)
(0.00282578 3.00832e-05 0)
(0.00276157 3.33388e-05 0)
(0.00269001 3.70125e-05 0)
(0.0026112 4.07804e-05 0)
(0.00252394 4.50426e-05 0)
(0.00242828 4.92908e-05 0)
(0.00232323 5.40748e-05 0)
(0.00220872 5.87149e-05 0)
(0.00208417 6.38647e-05 0)
(0.00194935 6.87282e-05 0)
(0.00180433 7.39722e-05 0)
(0.00164876 7.87961e-05 0)
(0.00148341 8.3758e-05 0)
(0.00130806 8.81832e-05 0)
(0.00112407 9.24429e-05 0)
(0.000931595 9.6041e-05 0)
(0.000732474 9.9179e-05 0)
(0.000527286 0.00010154 0)
(0.000318234 0.000103208 0)
(0.000106258 0.000104032 0)
(0.00333106 2.8935e-07 0)
(0.00333067 8.76468e-07 0)
(0.00332988 1.47201e-06 0)
(0.00332869 2.09235e-06 0)
(0.00332707 2.74697e-06 0)
(0.003325 3.44208e-06 0)
(0.00332245 4.18728e-06 0)
(0.00331938 4.99621e-06 0)
(0.00331573 5.88121e-06 0)
(0.00331147 6.85676e-06 0)
(0.00330652 7.9344e-06 0)
(0.00330081 9.12661e-06 0)
(0.00329425 1.04608e-05 0)
(0.00328676 1.1944e-05 0)
(0.0032782 1.36033e-05 0)
(0.00326847 1.546e-05 0)
(0.00325741 1.75406e-05 0)
(0.00324489 1.98693e-05 0)
(0.00323069 2.24791e-05 0)
(0.00321466 2.53955e-05 0)
(0.00319651 2.86706e-05 0)
(0.00317608 3.23143e-05 0)
(0.003153 3.64022e-05 0)
(0.00312709 4.09353e-05 0)
(0.00309784 4.60094e-05 0)
(0.00306512 5.16002e-05 0)
(0.00302824 5.7857e-05 0)
(0.00298713 6.46886e-05 0)
(0.0029409 7.23141e-05 0)
(0.00288957 8.05527e-05 0)
(0.00283201 8.97213e-05 0)
(0.00276835 9.94954e-05 0)
(0.0026973 0.000110327 0)
(0.00261906 0.000121695 0)
(0.00253227 0.000134187 0)
(0.00243713 0.000147072 0)
(0.00233246 0.000161049 0)
(0.00221831 0.000175198 0)
(0.00209398 0.000190225 0)
(0.00195925 0.000205122 0)
(0.00181418 0.000220472 0)
(0.00165835 0.000235285 0)
(0.0014926 0.000249938 0)
(0.00131656 0.00026354 0)
(0.00113177 0.000276239 0)
(0.000938191 0.00028731 0)
(0.000737857 0.000296741 0)
(0.000531232 0.000304011 0)
(0.000320674 0.000309052 0)
(0.000107064 0.00031159 0)
(0.00333182 4.79449e-07 0)
(0.00333144 1.44483e-06 0)
(0.00333068 2.43094e-06 0)
(0.00332952 3.45329e-06 0)
(0.00332795 4.53229e-06 0)
(0.00332594 5.67928e-06 0)
(0.00332346 6.91052e-06 0)
(0.00332048 8.24751e-06 0)
(0.00331695 9.70968e-06 0)
(0.0033128 1.13167e-05 0)
(0.003308 1.30939e-05 0)
(0.00330245 1.50681e-05 0)
(0.00329609 1.72663e-05 0)
(0.00328881 1.97169e-05 0)
(0.00328049 2.24582e-05 0)
(0.00327104 2.55297e-05 0)
(0.00326029 2.89678e-05 0)
(0.00324811 3.28174e-05 0)
(0.00323429 3.71348e-05 0)
(0.00321869 4.19625e-05 0)
(0.00320101 4.73797e-05 0)
(0.00318112 5.34144e-05 0)
(0.00315861 6.01876e-05 0)
(0.00313334 6.76978e-05 0)
(0.00310478 7.61215e-05 0)
(0.00307283 8.53931e-05 0)
(0.00303676 9.57929e-05 0)
(0.00299654 0.000107133 0)
(0.00295123 0.000119849 0)
(0.00290089 0.000133534 0)
(0.00284434 0.000148887 0)
(0.00278175 0.000165133 0)
(0.00271175 0.000183353 0)
(0.00263456 0.000202244 0)
(0.00254879 0.000223378 0)
(0.00245459 0.000244793 0)
(0.00235077 0.000268574 0)
(0.00223729 0.000292089 0)
(0.00211347 0.000317777 0)
(0.00197897 0.000342574 0)
(0.00183387 0.000368858 0)
(0.00167762 0.000393599 0)
(0.00151107 0.000418659 0)
(0.00133381 0.000441462 0)
(0.00114735 0.000463136 0)
(0.000951669 0.000481759 0)
(0.000748827 0.000497828 0)
(0.00053934 0.000510086 0)
(0.000325656 0.000518669 0)
(0.000108743 0.000522953 0)
(0.00333294 6.603e-07 0)
(0.00333258 1.99136e-06 0)
(0.00333185 3.35551e-06 0)
(0.00333075 4.76784e-06 0)
(0.00332925 6.25096e-06 0)
(0.00332733 7.83186e-06 0)
(0.00332496 9.5332e-06 0)
(0.00332212 1.13772e-05 0)
(0.00331874 1.33959e-05 0)
(0.00331479 1.56132e-05 0)
(0.00331019 1.80677e-05 0)
(0.0033049 2.07916e-05 0)
(0.00329881 2.38252e-05 0)
(0.00329185 2.7213e-05 0)
(0.00328389 3.10017e-05 0)
(0.00327484 3.52426e-05 0)
(0.00326455 3.99958e-05 0)
(0.00325289 4.53163e-05 0)
(0.00323964 5.12876e-05 0)
(0.00322468 5.79691e-05 0)
(0.00320773 6.54612e-05 0)
(0.00318862 7.38196e-05 0)
(0.00316698 8.31994e-05 0)
(0.00314269 9.36068e-05 0)
(0.00311517 0.000105288 0)
(0.00308439 0.00011816 0)
(0.00304953 0.00013259 0)
(0.00301069 0.000148362 0)
(0.00296676 0.000166027 0)
(0.002918 0.00018511 0)
(0.00286295 0.000206448 0)
(0.0028021 0.000229179 0)
(0.00273364 0.000254519 0)
(0.00265826 0.000281068 0)
(0.00257393 0.00031049 0)
(0.00248139 0.000340746 0)
(0.00237877 0.000373884 0)
(0.00226648 0.000407306 0)
(0.0021434 0.000443195 0)
(0.00200927 0.000478637 0)
(0.00186415 0.000515548 0)
(0.00170711 0.000551088 0)
(0.00153947 0.000586541 0)
(0.00136011 0.000619431 0)
(0.00117123 0.000650342 0)
(0.000972161 0.0006773 0)
(0.000765595 0.000700371 0)
(0.000551638 0.000718168 0)
(0.000333274 0.000730544 0)
(0.00011126 0.000736775 0)
(0.00333441 8.34253e-07 0)
(0.00333407 2.51079e-06 0)
(0.00333339 4.22606e-06 0)
(0.00333236 6.0063e-06 0)
(0.00333095 7.87891e-06 0)
(0.00332915 9.87129e-06 0)
(0.00332693 1.20136e-05 0)
(0.00332426 1.43433e-05 0)
(0.00332109 1.68838e-05 0)
(0.00331739 1.96844e-05 0)
(0.00331307 2.27797e-05 0)
(0.0033081 2.62153e-05 0)
(0.00330237 3.00482e-05 0)
(0.00329583 3.43253e-05 0)
(0.00328835 3.91088e-05 0)
(0.00327984 4.44629e-05 0)
(0.00327015 5.04702e-05 0)
(0.00325917 5.71982e-05 0)
(0.00324667 6.47571e-05 0)
(0.00323257 7.32069e-05 0)
(0.00321654 8.27003e-05 0)
(0.00319849 9.32925e-05 0)
(0.00317799 0.000105194 0)
(0.00315497 0.000118406 0)
(0.00312882 0.000133253 0)
(0.00309957 0.000149624 0)
(0.00306633 0.000168028 0)
(0.00302928 0.000188119 0)
(0.00298721 0.000210732 0)
(0.00294047 0.000235091 0)
(0.00288749 0.000262552 0)
(0.00282882 0.00029162 0)
(0.00276256 0.000324458 0)
(0.00268936 0.000358466 0)
(0.00260723 0.000396901 0)
(0.00251666 0.000435717 0)
(0.00241595 0.000479412 0)
(0.00230515 0.000522397 0)
(0.00218331 0.000570098 0)
(0.00204982 0.0006159 0)
(0.0019048 0.000665199 0)
(0.00174713 0.000711498 0)
(0.00157799 0.000758887 0)
(0.00139628 0.000802093 0)
(0.00120401 0.000843421 0)
(0.00100066 0.000879081 0)
(0.000788843 0.000909953 0)
(0.000568885 0.000933605 0)
(0.000343875 0.000950181 0)
(0.000114844 0.000958481 0)
(0.00333621 9.94407e-07 0)
(0.0033359 2.99215e-06 0)
(0.00333527 5.03449e-06 0)
(0.00333432 7.15857e-06 0)
(0.00333303 9.39057e-06 0)
(0.00333138 1.1766e-05 0)
(0.00332934 1.4322e-05 0)
(0.00332688 1.70936e-05 0)
(0.00332397 2.0127e-05 0)
(0.00332056 2.34689e-05 0)
(0.00331659 2.71617e-05 0)
(0.00331201 3.12637e-05 0)
(0.00330674 3.58352e-05 0)
(0.00330071 4.09433e-05 0)
(0.00329382 4.66614e-05 0)
(0.00328597 5.3061e-05 0)
(0.00327702 6.02415e-05 0)
(0.00326687 6.8293e-05 0)
(0.00325531 7.73352e-05 0)
(0.00324226 8.74577e-05 0)
(0.00322739 9.88391e-05 0)
(0.00321065 0.000111542 0)
(0.00319157 0.000125828 0)
(0.00317016 0.000141708 0)
(0.00314573 0.000159558 0)
(0.00311843 0.000179279 0)
(0.00308722 0.000201456 0)
(0.00305251 0.000225735 0)
(0.00301274 0.000253044 0)
(0.00296874 0.000282596 0)
(0.0029183 0.00031584 0)
(0.00286272 0.000351298 0)
(0.00279909 0.000391136 0)
(0.00272919 0.000432899 0)
(0.00264958 0.000479641 0)
(0.00256217 0.00052771 0)
(0.00246364 0.000580998 0)
(0.00235528 0.000634719 0)
(0.00223496 0.00069316 0)
(0.00210238 0.000750922 0)
(0.00195775 0.000811802 0)
(0.00179884 0.000870643 0)
(0.00162817 0.00092988 0)
(0.00144288 0.000985171 0)
(0.00124661 0.00103747 0)
(0.0010373 0.00108339 0)
(0.000818983 0.00112286 0)
(0.000591027 0.00115348 0)
(0.00035763 0.00117481 0)
(0.000119387 0.00118558 0)
(0.00333831 1.13611e-06 0)
(0.00333804 3.42801e-06 0)
(0.00333747 5.77157e-06 0)
(0.00333662 8.20321e-06 0)
(0.00333546 1.07625e-05 0)
(0.00333398 1.3485e-05 0)
(0.00333215 1.64153e-05 0)
(0.00332995 1.95965e-05 0)
(0.00332733 2.30789e-05 0)
(0.00332427 2.69083e-05 0)
(0.00332071 3.1149e-05 0)
(0.00331659 3.58612e-05 0)
(0.00331185 4.11111e-05 0)
(0.00330643 4.69788e-05 0)
(0.00330022 5.35485e-05 0)
(0.00329314 6.0911e-05 0)
(0.00328507 6.9175e-05 0)
(0.0032759 7.84447e-05 0)
(0.00326545 8.88627e-05 0)
(0.00325362 0.000100537 0)
(0.00324013 0.000113673 0)
(0.00322492 0.000128348 0)
(0.00320752 0.000144874 0)
(0.003188 0.000163256 0)
(0.00316562 0.000183971 0)
(0.00314059 0.000206862 0)
(0.00311182 0.000232692 0)
(0.00307979 0.000260955 0)
(0.00304289 0.000292933 0)
(0.00300196 0.000327435 0)
(0.00295476 0.000366651 0)
(0.00290255 0.000408157 0)
(0.00284246 0.000455611 0)
(0.00277603 0.000504614 0)
(0.00270006 0.000560988 0)
(0.0026159 0.000617504 0)
(0.00252073 0.000682687 0)
(0.00241498 0.000746061 0)
(0.0022971 0.000818506 0)
(0.00216599 0.000887176 0)
(0.00202204 0.000963224 0)
(0.00186275 0.00103421 0)
(0.00169014 0.00110821 0)
(0.00150163 0.00117587 0)
(0.00130019 0.00124126 0)
(0.00108426 0.0012981 0)
(0.000857467 0.00134755 0)
(0.000619752 0.00138574 0)
(0.000375316 0.00141253 0)
(0.000125398 0.00142602 0)
(0.00334068 1.26523e-06 0)
(0.00334044 3.81467e-06 0)
(0.00333995 6.42208e-06 0)
(0.00333921 9.12888e-06 0)
(0.0033382 1.19756e-05 0)
(0.00333692 1.50065e-05 0)
(0.00333532 1.82657e-05 0)
(0.00333341 2.18113e-05 0)
(0.00333113 2.56876e-05 0)
(0.00332847 2.99552e-05 0)
(0.00332535 3.46812e-05 0)
(0.00332177 3.99336e-05 0)
(0.00331763 4.579e-05 0)
(0.00331289 5.23346e-05 0)
(0.00330746 5.96701e-05 0)
(0.00330127 6.7891e-05 0)
(0.00329419 7.713e-05 0)
(0.00328615 8.74938e-05 0)
(0.00327695 9.91551e-05 0)
(0.00326655 0.000112232 0)
(0.00325463 0.000126956 0)
(0.0032412 0.000143433 0)
(0.00322575 0.000161999 0)
(0.00320845 0.000182688 0)
(0.00318843 0.000206017 0)
(0.00316614 0.000231863 0)
(0.00314018 0.000261042 0)
(0.00311149 0.000293089 0)
(0.00307784 0.00032933 0)
(0.00304092 0.000368682 0)
(0.00299733 0.000413273 0)
(0.00294982 0.000460966 0)
(0.00289353 0.000515108 0)
(0.00283236 0.000571962 0)
(0.00276011 0.000636482 0)
(0.00268134 0.000702842 0)
(0.00258952 0.00077772 0)
(0.00248827 0.000853143 0)
(0.00237314 0.000936832 0)
(0.00224409 0.00101963 0)
(0.00210173 0.00110845 0)
(0.00194081 0.00119493 0)
(0.00176689 0.00128308 0)
(0.00157316 0.00136629 0)
(0.00136629 0.00144567 0)
(0.00114139 0.0015162 0)
(0.000904799 0.00157717 0)
(0.000654652 0.00162494 0)
(0.000397077 0.00165831 0)
(0.000132597 0.00167528 0)
(0.00334329 1.37292e-06 0)
(0.00334309 4.14376e-06 0)
(0.00334268 6.97658e-06 0)
(0.00334206 9.91723e-06 0)
(0.00334122 1.30115e-05 0)
(0.00334014 1.63061e-05 0)
(0.00333881 1.98514e-05 0)
(0.00333721 2.37017e-05 0)
(0.00333531 2.79178e-05 0)
(0.00333307 3.25626e-05 0)
(0.00333048 3.77044e-05 0)
(0.00332747 4.34235e-05 0)
(0.003324 4.98023e-05 0)
(0.00332002 5.69341e-05 0)
(0.00331545 6.49338e-05 0)
(0.00331024 7.39036e-05 0)
(0.00330426 8.39891e-05 0)
(0.00329747 9.53123e-05 0)
(0.00328967 0.000108066 0)
(0.00328084 0.00012238 0)
(0.00327068 0.000138519 0)
(0.00325923 0.000156597 0)
(0.00324596 0.000176997 0)
(0.0032311 0.00019976 0)
(0.00321377 0.000225491 0)
(0.00319447 0.00025402 0)
(0.00317177 0.000286356 0)
(0.00314666 0.000321864 0)
(0.0031169 0.000362299 0)
(0.00308415 0.000406059 0)
(0.00304512 0.000456269 0)
(0.00300226 0.000509489 0)
(0.00295114 0.000571247 0)
(0.00289488 0.000634842 0)
(0.00282821 0.000709731 0)
(0.0027542 0.000784046 0)
(0.00266789 0.000872843 0)
(0.00257077 0.000957459 0)
(0.00246011 0.00105887 0)
(0.00233404 0.00115263 0)
(0.00219368 0.00126148 0)
(0.00203373 0.00136209 0)
(0.00185792 0.00146942 0)
(0.00166083 0.00156844 0)
(0.00144697 0.00166515 0)
(0.00121302 0.0017505 0)
(0.000963949 0.00182513 0)
(0.000699207 0.00188354 0)
(0.0004246 0.00192456 0)
(0.000142006 0.00194541 0)
(0.00334608 1.46073e-06 0)
(0.00334592 4.40865e-06 0)
(0.0033456 7.42517e-06 0)
(0.00334512 1.05582e-05 0)
(0.00334446 1.38519e-05 0)
(0.00334361 1.73604e-05 0)
(0.00334257 2.114e-05 0)
(0.0033413 2.52448e-05 0)
(0.0033398 2.97362e-05 0)
(0.00333804 3.46862e-05 0)
(0.00333599 4.01716e-05 0)
(0.00333361 4.62724e-05 0)
(0.00333087 5.30833e-05 0)
(0.00332771 6.07016e-05 0)
(0.00332408 6.92507e-05 0)
(0.00331993 7.88438e-05 0)
(0.00331515 8.9638e-05 0)
(0.00330973 0.000101769 0)
(0.00330346 0.000115442 0)
(0.00329637 0.000130807 0)
(0.00328813 0.000148141 0)
(0.00327888 0.000167592 0)
(0.00326802 0.000189566 0)
(0.00325593 0.00021414 0)
(0.00324156 0.00024194 0)
(0.00322574 0.000272865 0)
(0.00320662 0.000307927 0)
(0.00318585 0.000346628 0)
(0.00316029 0.000390648 0)
(0.00313294 0.000438691 0)
(0.00309862 0.000493585 0)
(0.00306241 0.000552592 0)
(0.00301628 0.000620381 0)
(0.00296796 0.000691811 0)
(0.00290622 0.000774306 0)
(0.00284106 0.000859175 0)
(0.00275932 0.000957298 0)
(0.00267042 0.00105582 0)
(0.00256424 0.00116842 0)
(0.00244249 0.0012796 0)
(0.00230682 0.00140204 0)
(0.00214441 0.00152265 0)
(0.00196894 0.00164754 0)
(0.00176481 0.00176756 0)
(0.00154455 0.00188332 0)
(0.00129804 0.00198806 0)
(0.00103507 0.0020794 0)
(0.000752015 0.00215205 0)
(0.000457664 0.00220302 0)
(0.000153008 0.00222916 0)
(0.00334904 1.52903e-06 0)
(0.00334893 4.61238e-06 0)
(0.0033487 7.76583e-06 0)
(0.00334835 1.10416e-05 0)
(0.00334788 1.44874e-05 0)
(0.00334727 1.81561e-05 0)
(0.00334653 2.21106e-05 0)
(0.00334563 2.64067e-05 0)
(0.00334456 3.11113e-05 0)
(0.0033433 3.62976e-05 0)
(0.00334182 4.20441e-05 0)
(0.00334011 4.84374e-05 0)
(0.00333813 5.55828e-05 0)
(0.00333585 6.35808e-05 0)
(0.00333321 7.25559e-05 0)
(0.0033302 8.26387e-05 0)
(0.0033267 9.39876e-05 0)
(0.00332273 0.000106755 0)
(0.00331809 0.000121162 0)
(0.00331286 0.000137369 0)
(0.0033067 0.00015568 0)
(0.00329978 0.000176254 0)
(0.00329154 0.000199533 0)
(0.00328238 0.000225606 0)
(0.00327127 0.00025518 0)
(0.00325908 0.000288125 0)
(0.003244 0.000325629 0)
(0.00322766 0.00036704 0)
(0.00320705 0.000414478 0)
(0.00318495 0.000466134 0)
(0.00315664 0.000525931 0)
(0.00312641 0.000589636 0)
(0.00308746 0.000664638 0)
(0.00304559 0.000741936 0)
(0.00299209 0.000835306 0)
(0.00293338 0.000927019 0)
(0.00286044 0.00104165 0)
(0.00277749 0.00114758 0)
(0.00267923 0.00128408 0)
(0.00256279 0.00140407 0)
(0.00243168 0.00155537 0)
(0.00227412 0.00169297 0)
(0.00209772 0.001843 0)
(0.00189171 0.00198459 0)
(0.00166287 0.00212389 0)
(0.00140502 0.0022503 0)
(0.00112452 0.00236127 0)
(0.000820248 0.00244999 0)
(0.000500113 0.00251239 0)
(0.000167604 0.00254452 0)
(0.0033521 1.57127e-06 0)
(0.00335203 4.74359e-06 0)
(0.0033519 7.99064e-06 0)
(0.0033517 1.13578e-05 0)
(0.00335143 1.49047e-05 0)
(0.00335108 1.86834e-05 0)
(0.00335064 2.27516e-05 0)
(0.00335012 2.71729e-05 0)
(0.00334949 3.20191e-05 0)
(0.00334875 3.73656e-05 0)
(0.00334788 4.32897e-05 0)
(0.00334687 4.98856e-05 0)
(0.00334569 5.72591e-05 0)
(0.00334433 6.55142e-05 0)
(0.00334274 7.47867e-05 0)
(0.00334092 8.52103e-05 0)
(0.00333877 9.69542e-05 0)
(0.00333633 0.000110183 0)
(0.00333343 0.000125116 0)
(0.00333017 0.000141939 0)
(0.0033262 0.000160968 0)
(0.00332182 0.000182385 0)
(0.00331635 0.000206646 0)
(0.00331042 0.000233894 0)
(0.00330277 0.000264823 0)
(0.00329472 0.000299417 0)
(0.00328389 0.000338799 0)
(0.00327285 0.000382565 0)
(0.00325731 0.000432617 0)
(0.00324207 0.000487686 0)
(0.00321954 0.000551092 0)
(0.00319822 0.000619819 0)
(0.00316541 0.00069973 0)
(0.00313508 0.000784498 0)
(0.00308744 0.000884338 0)
(0.0030431 0.000987191 0)
(0.00297529 0.00110996 0)
(0.00290779 0.00123218 0)
(0.00281538 0.00137837 0)
(0.00270813 0.00152073 0)
(0.00258969 0.00168402 0)
(0.00242604 0.00184807 0)
(0.00225449 0.00202086 0)
(0.00203986 0.00219162 0)
(0.00180471 0.00235852 0)
(0.00153046 0.00251349 0)
(0.0012306 0.00265057 0)
(0.000899989 0.00276191 0)
(0.00055022 0.0028407 0)
(0.000184469 0.00288158 0)
(0.00335522 1.59271e-06 0)
(0.0033552 4.80319e-06 0)
(0.00335517 8.08998e-06 0)
(0.00335512 1.1505e-05 0)
(0.00335505 1.50977e-05 0)
(0.00335496 1.89268e-05 0)
(0.00335485 2.30509e-05 0)
(0.00335471 2.75353e-05 0)
(0.00335454 3.24485e-05 0)
(0.00335433 3.78702e-05 0)
(0.00335408 4.38877e-05 0)
(0.00335379 5.05855e-05 0)
(0.00335343 5.80747e-05 0)
(0.00335302 6.6468e-05 0)
(0.0033525 7.59032e-05 0)
(0.00335191 8.65164e-05 0)
(0.00335115 9.84838e-05 0)
(0.00335031 0.000111975 0)
(0.0033492 0.000127223 0)
(0.00334797 0.000144425 0)
(0.0033463 0.000163901 0)
(0.00334451 0.00018586 0)
(0.00334197 0.000210776 0)
(0.00333935 0.000238816 0)
(0.00333543 0.000270712 0)
(0.00333152 0.000306472 0)
(0.00332542 0.000347315 0)
(0.00331952 0.0003928 0)
(0.00330998 0.0004451 0)
(0.00330095 0.000502682 0)
(0.00328602 0.000569653 0)
(0.00327195 0.000641944 0)
(0.00324871 0.00072773 0)
(0.00322636 0.000817215 0)
(0.00319056 0.000927247 0)
(0.00315431 0.00103538 0)
(0.00310033 0.00117675 0)
(0.00304031 0.00130247 0)
(0.00296176 0.00148272 0)
(0.00286208 0.00162377 0)
(0.0027522 0.00183456 0)
(0.00260395 0.00202137 0)
(0.00243413 0.00222379 0)
(0.00222234 0.00242615 0)
(0.00197803 0.00262511 0)
(0.00169098 0.00281408 0)
(0.00136777 0.00298078 0)
(0.00100643 0.00311792 0)
(0.000617297 0.00321487 0)
(0.000207633 0.00326562 0)
(0.00335836 1.59231e-06 0)
(0.00335839 4.79512e-06 0)
(0.00335846 8.07139e-06 0)
(0.00335856 1.14753e-05 0)
(0.00335869 1.50601e-05 0)
(0.00335887 1.88834e-05 0)
(0.00335907 2.3001e-05 0)
(0.00335933 2.74782e-05 0)
(0.00335961 3.23885e-05 0)
(0.00335995 3.78064e-05 0)
(0.00336033 4.38201e-05 0)
(0.00336077 5.05204e-05 0)
(0.00336124 5.80176e-05 0)
(0.00336179 6.64246e-05 0)
(0.00336236 7.5875e-05 0)
(0.00336303 8.65212e-05 0)
(0.0033637 9.85307e-05 0)
(0.00336448 0.000112083 0)
(0.0033652 0.000127418 0)
(0.00336608 0.000144742 0)
(0.00336678 0.000164379 0)
(0.00336772 0.000186566 0)
(0.0033682 0.000211759 0)
(0.00336911 0.000240197 0)
(0.00336903 0.000272575 0)
(0.00336973 0.000309036 0)
(0.00336842 0.000350684 0)
(0.0033686 0.000397392 0)
(0.0033649 0.000451008 0)
(0.00336402 0.000510698 0)
(0.0033559 0.000579769 0)
(0.00335301 0.000655706 0)
(0.00333703 0.000744723 0)
(0.00333044 0.000840527 0)
(0.00330106 0.00095525 0)
(0.00328741 0.00107436 0)
(0.00323681 0.00122183 0)
(0.00320738 0.00136643 0)
(0.00313 0.0015527 0)
(0.00305264 0.00172433 0)
(0.00297902 0.00193594 0)
(0.00280717 0.00215711 0)
(0.00265084 0.00239282 0)
(0.00243281 0.0026356 0)
(0.00218455 0.00287665 0)
(0.00187872 0.00310844 0)
(0.00152812 0.00331866 0)
(0.00112921 0.00349452 0)
(0.00069484 0.00362092 0)
(0.000234156 0.00368744 0)
(0.00336147 1.56102e-06 0)
(0.00336156 4.7073e-06 0)
(0.00336172 7.92895e-06 0)
(0.00336197 1.12749e-05 0)
(0.0033623 1.47979e-05 0)
(0.00336273 1.85551e-05 0)
(0.00336326 2.26018e-05 0)
(0.0033639 2.70078e-05 0)
(0.00336465 3.1838e-05 0)
(0.00336552 3.71701e-05 0)
(0.00336653 4.30897e-05 0)
(0.00336769 4.96893e-05 0)
(0.003369 5.70778e-05 0)
(0.0033705 6.53667e-05 0)
(0.00337217 7.4695e-05 0)
(0.00337409 8.52045e-05 0)
(0.00337618 9.70765e-05 0)
(0.00337859 0.000110488 0)
(0.00338117 0.000125674 0)
(0.00338416 0.000142856 0)
(0.00338724 0.000162347 0)
(0.00339091 0.000184417 0)
(0.00339449 0.000209511 0)
(0.0033989 0.000237913 0)
(0.00340283 0.000270288 0)
(0.00340801 0.000306886 0)
(0.00341193 0.000348743 0)
(0.00341776 0.000395921 0)
(0.00342092 0.00045016 0)
(0.00342703 0.000510935 0)
(0.00342801 0.000581408 0)
(0.00343347 0.00065948 0)
(0.00342968 0.000751425 0)
(0.0034325 0.00085092 0)
(0.00341951 0.000971891 0)
(0.00341533 0.001096 0)
(0.00338632 0.00125886 0)
(0.00336428 0.00140393 0)
(0.0033122 0.00163922 0)
(0.00323733 0.00176864 0)
(0.00317595 0.00207898 0)
(0.0030513 0.00234356 0)
(0.00290265 0.00259377 0)
(0.00269607 0.00288498 0)
(0.00244101 0.00317096 0)
(0.00212379 0.00345967 0)
(0.00174579 0.00371775 0)
(0.00130239 0.00393644 0)
(0.000806201 0.00409378 0)
(0.000272762 0.00417754 0)
(0.0033645 1.50781e-06 0)
(0.00336463 4.55302e-06 0)
(0.00336489 7.66802e-06 0)
(0.00336529 1.09019e-05 0)
(0.00336582 1.43094e-05 0)
(0.00336651 1.79419e-05 0)
(0.00336735 2.18607e-05 0)
(0.00336837 2.61234e-05 0)
(0.00336957 3.08017e-05 0)
(0.00337096 3.5965e-05 0)
(0.00337259 4.16994e-05 0)
(0.00337446 4.80994e-05 0)
(0.00337659 5.52639e-05 0)
(0.00337904 6.33112e-05 0)
(0.00338179 7.23697e-05 0)
(0.00338494 8.25857e-05 0)
(0.00338845 9.41298e-05 0)
(0.00339248 0.000107187 0)
(0.00339689 0.000121984 0)
(0.00340199 0.000138756 0)
(0.00340748 0.000157801 0)
(0.0034139 0.000179404 0)
(0.00342058 0.000203997 0)
(0.00342862 0.000231913 0)
(0.00343655 0.000263763 0)
(0.00344655 0.000299928 0)
(0.00345559 0.000341308 0)
(0.00346791 0.00038825 0)
(0.00347752 0.0004422 0)
(0.00349254 0.00050324 0)
(0.00350135 0.00057386 0)
(0.00351949 0.000653278 0)
(0.00352448 0.000746231 0)
(0.00354631 0.000849328 0)
(0.00354104 0.00097279 0)
(0.0035684 0.00110525 0)
(0.00353833 0.00127261 0)
(0.00357983 0.00143699 0)
(0.00348712 0.00167725 0)
(0.00358573 0.00185625 0)
(0.00347312 0.00209689 0)
(0.00322165 0.0021428 0)
(0.00313002 0.00244075 0)
(0.00297124 0.00277688 0)
(0.00275272 0.00312152 0)
(0.00245341 0.00347633 0)
(0.00206713 0.00382349 0)
(0.00159882 0.00414167 0)
(0.00106055 0.00439766 0)
(0.000469076 0.0045676 0)
(0.0033674 1.4348e-06 0)
(0.00336758 4.32846e-06 0)
(0.00336794 7.28753e-06 0)
(0.00336847 1.03626e-05 0)
(0.0033692 1.36007e-05 0)
(0.00337013 1.70553e-05 0)
(0.00337127 2.0784e-05 0)
(0.00337265 2.48392e-05 0)
(0.00337429 2.92935e-05 0)
(0.0033762 3.42088e-05 0)
(0.00337841 3.96704e-05 0)
(0.00338097 4.5768e-05 0)
(0.00338389 5.2598e-05 0)
(0.00338725 6.02724e-05 0)
(0.00339105 6.8917e-05 0)
(0.0033954 7.86785e-05 0)
(0.00340028 8.97147e-05 0)
(0.00340587 0.00010221 0)
(0.00341208 0.000116382 0)
(0.00341922 0.000132464 0)
(0.00342705 0.000150746 0)
(0.00343614 0.000171529 0)
(0.00344591 0.000195202 0)
(0.00345742 0.000222164 0)
(0.00346942 0.00025293 0)
(0.00348393 0.000288039 0)
(0.00349841 0.000328183 0)
(0.00351654 0.000374082 0)
(0.00353352 0.000426663 0)
(0.00355595 0.00048695 0)
(0.00357493 0.000556103 0)
(0.00360225 0.000635716 0)
(0.00362164 0.000726968 0)
(0.00365433 0.000832817 0)
(0.00367011 0.000953243 0)
(0.00370891 0.00109549 0)
(0.00371115 0.00125263 0)
(0.0037605 0.00144856 0)
(0.00372273 0.0016423 0)
(0.0038103 0.00193337 0)
(0.00384301 0.00213683 0)
(0.00351835 0.00229127 0)
(0.00345228 0.00263903 0)
(0.00332291 0.00302482 0)
(0.00312065 0.00343527 0)
(0.00282827 0.00385405 0)
(0.00240594 0.00428927 0)
(0.00188217 0.00469216 0)
(0.00126014 0.00501721 0)
(0.000559786 0.00522557 0)
(0.00337014 1.33703e-06 0)
(0.00337036 4.03323e-06 0)
(0.0033708 6.7942e-06 0)
(0.00337147 9.66376e-06 0)
(0.00337238 1.26882e-05 0)
(0.00337354 1.59107e-05 0)
(0.00337497 1.93873e-05 0)
(0.00337669 2.31748e-05 0)
(0.00337873 2.73322e-05 0)
(0.00338113 3.19242e-05 0)
(0.00338391 3.70289e-05 0)
(0.00338712 4.27307e-05 0)
(0.00339079 4.91158e-05 0)
(0.00339502 5.6298e-05 0)
(0.00339981 6.43946e-05 0)
(0.0034053 7.35408e-05 0)
(0.00341149 8.38869e-05 0)
(0.00341859 9.56175e-05 0)
(0.00342652 0.00010893 0)
(0.00343564 0.000124057 0)
(0.00344573 0.000141269 0)
(0.00345743 0.000160877 0)
(0.00347016 0.000183231 0)
(0.00348515 0.000208762 0)
(0.00350106 0.00023793 0)
(0.00352023 0.00027133 0)
(0.00353984 0.000309574 0)
(0.00356434 0.000353517 0)
(0.00358804 0.000403939 0)
(0.00361929 0.000462119 0)
(0.00364702 0.000529029 0)
(0.00368678 0.000606642 0)
(0.00371747 0.000696024 0)
(0.00376787 0.000800488 0)
(0.00379824 0.000920589 0)
(0.00386155 0.00106288 0)
(0.00388403 0.00122419 0)
(0.00396138 0.00142197 0)
(0.00396183 0.00163263 0)
(0.0040446 0.00192159 0)
(0.00420176 0.00213186 0)
(0.00385615 0.00239372 0)
(0.00382982 0.00278709 0)
(0.00374043 0.00323525 0)
(0.00357261 0.00372654 0)
(0.00332742 0.00420023 0)
(0.00284026 0.00477234 0)
(0.00225704 0.00530708 0)
(0.00153191 0.00574224 0)
(0.000683892 0.00601903 0)
(0.00337267 1.21928e-06 0)
(0.00337293 3.68025e-06 0)
(0.00337345 6.20138e-06 0)
(0.00337424 8.8169e-06 0)
(0.00337531 1.15748e-05 0)
(0.00337669 1.45217e-05 0)
(0.00337838 1.7695e-05 0)
(0.00338043 2.11516e-05 0)
(0.00338285 2.49478e-05 0)
(0.00338569 2.91443e-05 0)
(0.00338899 3.38113e-05 0)
(0.0033928 3.90249e-05 0)
(0.00339718 4.48661e-05 0)
(0.00340221 5.14403e-05 0)
(0.00340793 5.88538e-05 0)
(0.00341449 6.72308e-05 0)
(0.0034219 7.6719e-05 0)
(0.00343039 8.74857e-05 0)
(0.00343993 9.97125e-05 0)
(0.00345089 0.000113625 0)
(0.00346311 0.000129464 0)
(0.00347723 0.000147547 0)
(0.00349279 0.00016817 0)
(0.00351097 0.000191798 0)
(0.00353069 0.000218781 0)
(0.00355408 0.00024985 0)
(0.00357888 0.00028535 0)
(0.00360895 0.000326505 0)
(0.00363986 0.000373484 0)
(0.00367843 0.000428531 0)
(0.00371643 0.000491073 0)
(0.00376576 0.000565591 0)
(0.00381146 0.000649329 0)
(0.00387423 0.000751829 0)
(0.00392704 0.000864342 0)
(0.00400617 0.00100838 0)
(0.00406275 0.00115929 0)
(0.00416042 0.00136742 0)
(0.00421194 0.00156747 0)
(0.00432314 0.00187777 0)
(0.00454336 0.00208139 0)
(0.0042302 0.00243426 0)
(0.00426157 0.00287224 0)
(0.00422833 0.00339393 0)
(0.00409613 0.00402363 0)
(0.00389896 0.00480225 0)
(0.00344467 0.00553721 0)
(0.00275768 0.00623976 0)
(0.00182948 0.00683094 0)
(0.000701585 0.00719439 0)
(0.00337494 1.08561e-06 0)
(0.00337524 3.27285e-06 0)
(0.00337583 5.50946e-06 0)
(0.00337674 7.83608e-06 0)
(0.00337796 1.02867e-05 0)
(0.00337953 1.29035e-05 0)
(0.00338147 1.57271e-05 0)
(0.0033838 1.88013e-05 0)
(0.00338656 2.21794e-05 0)
(0.00338981 2.59127e-05 0)
(0.00339358 3.00655e-05 0)
(0.00339794 3.47064e-05 0)
(0.00340296 3.99107e-05 0)
(0.00340871 4.57715e-05 0)
(0.00341528 5.23783e-05 0)
(0.0034228 5.98547e-05 0)
(0.00343133 6.83258e-05 0)
(0.0034411 7.79444e-05 0)
(0.00345211 8.88759e-05 0)
(0.00346477 0.000101327 0)
(0.00347894 0.000115515 0)
(0.00349532 0.000131742 0)
(0.00351348 0.000150265 0)
(0.00353471 0.00017153 0)
(0.0035579 0.00019585 0)
(0.00358541 0.000223928 0)
(0.00361491 0.00025607 0)
(0.00365064 0.00029345 0)
(0.00368794 0.000336261 0)
(0.00373442 0.000386564 0)
(0.00378122 0.000444085 0)
(0.00384174 0.000512688 0)
(0.00389983 0.000590724 0)
(0.00397841 0.000685898 0)
(0.00404945 0.000792829 0)
(0.00415034 0.000927793 0)
(0.00423559 0.00107553 0)
(0.00436106 0.00127236 0)
(0.00446156 0.00147735 0)
(0.00460459 0.00177387 0)
(0.00488903 0.00197126 0)
(0.0046388 0.00239911 0)
(0.00474801 0.00286987 0)
(0.00480473 0.0034432 0)
(0.0047752 0.00412955 0)
(0.00472701 0.00512165 0)
(0.00432409 0.00607892 0)
(0.00359525 0.00707414 0)
(0.00247852 0.00796858 0)
(0.00100507 0.0085465 0)
(0.00337693 9.32697e-07 0)
(0.00337726 2.81011e-06 0)
(0.00337792 4.73536e-06 0)
(0.00337892 6.73531e-06 0)
(0.00338028 8.84153e-06 0)
(0.00338201 1.10876e-05 0)
(0.00338416 1.35131e-05 0)
(0.00338674 1.61595e-05 0)
(0.00338981 1.90632e-05 0)
(0.00339341 2.22755e-05 0)
(0.0033976 2.5848e-05 0)
(0.00340244 2.98428e-05 0)
(0.00340801 3.43259e-05 0)
(0.00341441 3.93709e-05 0)
(0.00342172 4.50651e-05 0)
(0.0034301 5.15125e-05 0)
(0.00343961 5.88159e-05 0)
(0.00345051 6.71209e-05 0)
(0.00346283 7.65575e-05 0)
(0.00347698 8.73275e-05 0)
(0.00349289 9.96043e-05 0)
(0.00351125 0.000113662 0)
(0.00353175 0.000129712 0)
(0.00355562 0.000148199 0)
(0.00358199 0.000169323 0)
(0.00361305 0.000193824 0)
(0.00364697 0.000221816 0)
(0.00368747 0.000254638 0)
(0.00373104 0.000292024 0)
(0.003784 0.000336563 0)
(0.00383993 0.000386945 0)
(0.00390935 0.000448411 0)
(0.00398106 0.000517037 0)
(0.00407211 0.000603668 0)
(0.0041639 0.000698339 0)
(0.00428299 0.000823557 0)
(0.00440014 0.000956365 0)
(0.00455388 0.00114243 0)
(0.00470299 0.00133363 0)
(0.00489383 0.00161694 0)
(0.00522289 0.00179444 0)
(0.00506926 0.00227529 0)
(0.00527727 0.00276405 0)
(0.00545719 0.00337984 0)
(0.00557705 0.00415326 0)
(0.00572314 0.00530332 0)
(0.00548024 0.00655592 0)
(0.00479274 0.00797847 0)
(0.00346532 0.00939519 0)
(0.00146966 0.0104016 0)
(0.0033786 7.64583e-07 0)
(0.00337896 2.30598e-06 0)
(0.00337967 3.88438e-06 0)
(0.00338076 5.52592e-06 0)
(0.00338223 7.25786e-06 0)
(0.00338411 9.10327e-06 0)
(0.00338643 1.10938e-05 0)
(0.00338923 1.32654e-05 0)
(0.00339255 1.56499e-05 0)
(0.00339645 1.82892e-05 0)
(0.00340099 2.12255e-05 0)
(0.00340624 2.45084e-05 0)
(0.00341228 2.81936e-05 0)
(0.00341923 3.23419e-05 0)
(0.00342717 3.7028e-05 0)
(0.00343627 4.23336e-05 0)
(0.00344661 4.83498e-05 0)
(0.00345847 5.51936e-05 0)
(0.0034719 6.2976e-05 0)
(0.00348733 7.18638e-05 0)
(0.00350472 8.19965e-05 0)
(0.00352481 9.36207e-05 0)
(0.0035473 0.000106901 0)
(0.00357349 0.000122217 0)
(0.00360258 0.000139744 0)
(0.00363681 0.000160106 0)
(0.00367445 0.000183419 0)
(0.00371938 0.000210788 0)
(0.00376815 0.000242101 0)
(0.00382737 0.000279397 0)
(0.00389074 0.000321928 0)
(0.00396912 0.000373654 0)
(0.00405185 0.000432244 0)
(0.00415593 0.000505587 0)
(0.00426475 0.000587714 0)
(0.004403 0.000694578 0)
(0.00454783 0.000812351 0)
(0.00473046 0.000973079 0)
(0.00492618 0.00114755 0)
(0.00516397 0.00139746 0)
(0.00553269 0.00154178 0)
(0.00550258 0.00205144 0)
(0.00582633 0.00253267 0)
(0.0061612 0.00316215 0)