/*--------------------------------*- C++ -*----------------------------------*\
| =========                 |                                                 |
| \\      /  F ield         | foam-extend: Open Source CFD                    |
|  \\    /   O peration     | Version:     4.0                                |
|   \\  /    A nd           | Web:         http://www.foam-extend.org         |
|    \\/     M anipulation  |                                                 |
\*---------------------------------------------------------------------------*/
FoamFile
{
    version     2.0;
    format      ascii;
    class       volScalarField;
    location    "0.0008";
    object      k;
}
// * * * * * * * * * * * * * * * * * * * * * * * * * * * * * * * * * * * * * //

dimensions      [0 2 -2 0 0 0 0];

internalField   nonuniform List<scalar> 
28770
(
7.24967e-07
1.77899e-06
2.67452e-06
3.49022e-06
4.23275e-06
4.91389e-06
5.53509e-06
6.09843e-06
6.60553e-06
7.05814e-06
7.45835e-06
7.80857e-06
8.11148e-06
8.36988e-06
8.58657e-06
8.76426e-06
8.90542e-06
9.01219e-06
9.08626e-06
9.12881e-06
9.14045e-06
9.12122e-06
9.07051e-06
8.98721e-06
8.86983e-06
8.71653e-06
8.52529e-06
8.29418e-06
8.02152e-06
7.70615e-06
7.34771e-06
6.94683e-06
6.50539e-06
6.02669e-06
5.51557e-06
4.97843e-06
4.42323e-06
3.85935e-06
3.29736e-06
2.74869e-06
2.22523e-06
1.73872e-06
1.30016e-06
9.19029e-07
6.0262e-07
3.55324e-07
1.78026e-07
6.73552e-08
1.43625e-08
1.03876e-09
2.19396e-05
5.31168e-05
7.96605e-05
0.000103867
0.000125923
0.000146149
0.000164599
0.000181331
0.000196392
0.000209834
0.00022172
0.000232121
0.000241118
0.000248792
0.000255227
0.000260504
0.000264695
0.000267865
0.000270062
0.000271323
0.000271665
0.000271089
0.000269577
0.000267095
0.0002636
0.000259035
0.000253342
0.000246463
0.000238348
0.000228963
0.000218297
0.000206368
0.000193235
0.000178994
0.00016379
0.000147815
0.000131304
0.000114537
9.78292e-05
8.15199e-05
6.59628e-05
5.15074e-05
3.84803e-05
2.71636e-05
1.77737e-05
1.04409e-05
5.1913e-06
1.92519e-06
3.78957e-07
1.54821e-08
0.000145577
0.000367145
0.000550876
0.000716818
0.000868068
0.00100668
0.00113316
0.00124786
0.0013511
0.00144324
0.00152471
0.001596
0.00165766
0.00171025
0.00175434
0.00179049
0.00181919
0.00184087
0.00185589
0.00186446
0.00186672
0.00186266
0.00185216
0.00183498
0.00181081
0.00177928
0.00173997
0.00169248
0.00163648
0.00157172
0.00149814
0.00141587
0.00132532
0.00122715
0.00112238
0.00101232
0.000898619
0.000783196
0.000668225
0.000556054
0.00044912
0.000349832
0.000260441
0.000182892
0.000118675
6.86952e-05
3.31722e-05
1.15322e-05
1.98694e-06
7.26262e-08
0.000483272
0.00127936
0.00193666
0.00252018
0.00304891
0.00353218
0.0039728
0.00437228
0.00473178
0.00505259
0.00533622
0.00558438
0.00579897
0.00598197
0.00613535
0.00626104
0.00636077
0.00643604
0.00648801
0.0065175
0.00652489
0.00651016
0.00647285
0.00641213
0.00632689
0.00621577
0.00607733
0.00591017
0.00571308
0.00548527
0.00522648
0.00493723
0.00461892
0.00427398
0.00390596
0.00351954
0.0031205
0.00271565
0.00231263
0.00191972
0.0015455
0.00119848
0.000886602
0.000616782
0.00039439
0.000222871
0.000103364
3.37159e-05
5.4059e-06
1.91186e-07
0.00113869
0.00312771
0.00479666
0.0062615
0.00757676
0.00877214
0.00985914
0.0108434
0.0117285
0.012518
0.0132158
0.0138262
0.0143539
0.0148037
0.0151806
0.0154893
0.015734
0.0159184
0.0160452
0.0161166
0.0161332
0.0160951
0.016001
0.0158487
0.0156355
0.015358
0.0150125
0.0145954
0.0141039
0.0135359
0.0128909
0.0121702
0.0113773
0.0105184
0.00960244
0.00864116
0.00764906
0.00664319
0.00564269
0.00466828
0.00374151
0.0028838
0.00211534
0.00145386
0.000913412
0.000503116
0.00022517
7.03766e-05
1.09015e-05
3.80101e-07
0.00220184
0.00619859
0.00963047
0.0126359
0.015314
0.0177313
0.0199198
0.0218962
0.0236709
0.0252524
0.0266493
0.0278705
0.0289258
0.029825
0.0305779
0.0311941
0.031682
0.0320489
0.0323003
0.0324401
0.0324698
0.032389
0.032195
0.0318836
0.0314487
0.0308833
0.0301801
0.0293318
0.0283324
0.0271779
0.0258672
0.0244031
0.022793
0.0210497
0.0191914
0.0172424
0.0152324
0.0131963
0.0111733
0.00920595
0.00733864
0.00561583
0.00407972
0.00276762
0.00170873
0.000920252
0.000401016
0.000122065
1.8567e-05
6.4213e-07
0.00374395
0.0107095
0.0168258
0.0222051
0.02698
0.0312635
0.0351218
0.0385935
0.0417033
0.04447
0.0469109
0.049043
0.0508839
0.0524516
0.0537633
0.0548358
0.0556838
0.0563198
0.0567536
0.0569914
0.0570358
0.0568856
0.056536
0.0559787
0.0552031
0.0541964
0.0529455
0.0514373
0.0496612
0.0476101
0.0452822
0.0426829
0.0398257
0.0367335
0.0334396
0.0299874
0.0264306
0.0228319
0.0192619
0.0157972
0.0125182
0.00950596
0.00683755
0.0045803
0.00278425
0.00147266
0.000629683
0.000188493
2.83587e-05
9.7531e-07
0.00581231
0.0167987
0.0266316
0.0353456
0.0430776
0.0499844
0.056176
0.0617245
0.0666791
0.0710771
0.0749504
0.0783294
0.0812439
0.0837233
0.085796
0.0874885
0.0888245
0.0898239
0.0905015
0.090867
0.090924
0.09067
0.0900966
0.0891902
0.0879329
0.0863042
0.084282
0.0818457
0.0789777
0.0756668
0.0719107
0.0677183
0.0631121
0.0581303
0.0528276
0.0472758
0.0415627
0.0357916
0.0300781
0.0245481
0.0193339
0.014569
0.01038
0.00687419
0.00412403
0.00215098
0.000907426
0.000268633
4.01202e-05
1.37466e-06
0.00842845
0.0245222
0.0391508
0.0522269
0.0638547
0.0742191
0.0834749
0.0917369
0.0990895
0.105598
0.111318
0.116299
0.120589
0.124234
0.127277
0.129759
0.131714
0.133171
0.134153
0.134673
0.134736
0.134336
0.13346
0.132088
0.130192
0.12774
0.124698
0.121036
0.116728
0.111756
0.106117
0.0998271
0.0929203
0.0854559
0.0775186
0.0692187
0.0606917
0.0520954
0.0436067
0.0354173
0.0277281
0.0207416
0.0146487
0.00960414
0.00569922
0.00294041
0.00122847
0.0003609
5.36242e-05
1.83381e-06
0.0115886
0.0338532
0.0543411
0.072807
0.089289
0.103974
0.117055
0.128693
0.139014
0.148124
0.15611
0.16305
0.169017
0.174078
0.178298
0.181732
0.184432
0.186437
0.187779
0.188474
0.188528
0.187934
0.186671
0.184708
0.182005
0.178516
0.174194
0.168994
0.162878
0.155824
0.147829
0.138914
0.129132
0.11857
0.107353
0.0956413
0.083633
0.0715571
0.0596686
0.0482405
0.0375569
0.0279037
0.01955
0.012706
0.00747198
0.00382224
0.00158551
0.000463329
6.85908e-05
2.34307e-06
0.0152644
0.0446834
0.0720128
0.0968335
0.119087
0.138931
0.156583
0.172246
0.186096
0.198285
0.208941
0.21818
0.226108
0.232819
0.238405
0.242942
0.246499
0.249131
0.250878
0.251762
0.251789
0.250947
0.249207
0.246525
0.242846
0.238108
0.232244
0.225193
0.216906
0.207353
0.19653
0.18447
0.171249
0.156988
0.141864
0.126102
0.109979
0.093812
0.0779505
0.0627615
0.0486192
0.0358987
0.0249649
0.0161002
0.00939823
0.00477622
0.0019709
0.000573864
8.46772e-05
2.88722e-06
0.019406
0.0568282
0.0918508
0.123876
0.152717
0.178479
0.201385
0.221673
0.239569
0.255276
0.268971
0.280816
0.290956
0.299524
0.306639
0.312407
0.316916
0.320238
0.322424
0.323502
0.323477
0.322332
0.320027
0.316504
0.311688
0.305497
0.297844
0.28865
0.27785
0.265406
0.251317
0.235629
0.218446
0.199935
0.180333
0.159947
0.139148
0.118362
0.0980484
0.0786745
0.0606954
0.0445598
0.030756
0.01969
0.0114296
0.00578599
0.00238049
0.000692053
0.000101732
3.44809e-06
0.0239464
0.0700463
0.113442
0.153357
0.189443
0.221756
0.250493
0.27592
0.298305
0.317904
0.334952
0.34966
0.362222
0.372813
0.381589
0.388686
0.394219
0.398276
0.400922
0.40219
0.402086
0.400584
0.397633
0.393157
0.387061
0.379238
0.36958
0.357985
0.344373
0.328698
0.310962
0.291229
0.269636
0.246404
0.221844
0.196357
0.170429
0.144614
0.119501
0.0956614
0.0735955
0.0537417
0.036775
0.0233555
0.0135119
0.00684603
0.00282031
0.000821413
0.000120355
4.04479e-06
0.028802
0.0840463
0.13629
0.184552
0.228359
0.267697
0.302705
0.333661
0.360876
0.384657
0.405296
0.423061
0.4382
0.450935
0.461464
0.469957
0.476557
0.481376
0.484489
0.485937
0.485725
0.483818
0.480152
0.474632
0.467138
0.45754
0.445702
0.431502
0.414842
0.395668
0.373988
0.349886
0.323537
0.295225
0.265342
0.2344
0.203017
0.171901
0.141802
0.113422
0.0872378
0.0633488
0.0428705
0.0269661
0.0156207
0.00798916
0.00331118
0.000970648
0.00014032
4.69658e-06
0.0338755
0.0985024
0.159829
0.216687
0.268501
0.31513
0.356675
0.393408
0.425672
0.45382
0.478201
0.499145
0.516953
0.531901
0.544232
0.554154
0.561841
0.567427
0.571002
0.572615
0.572267
0.569918
0.565485
0.558854
0.549881
0.538407
0.524271
0.507326
0.487458
0.464607
0.438786
0.410102
0.378774
0.34515
0.309715
0.273095
0.23606
0.199501
0.164394
0.131682
0.101855
0.0732276
0.0486851
0.030421
0.0178575
0.00937333
0.00393673
0.00116219
0.000165766
4.73084e-06
0.0390588
0.113078
0.183495
0.24899
0.308847
0.362815
0.410993
0.453596
0.49099
0.523578
0.551759
0.575921
0.596426
0.613602
0.62774
0.63909
0.647856
0.654197
0.65822
0.659979
0.659474
0.656656
0.651426
0.643648
0.633152
0.619753
0.603261
0.583506
0.560358
0.53375
0.503703
0.470348
0.433951
0.394925
0.353847
0.311463
0.268692
0.226628
0.186548
0.149986
0.129693
0.0883475
0.0578005
0.0364603
0.0223938
0.0126266
0.0058148
0.00187601
0.000346481
1.13394e-05
0.0442338
0.127433
0.206722
0.280669
0.348361
0.409551
0.464266
0.512669
0.555138
0.592116
0.624053
0.651393
0.674555
0.69392
0.709829
0.722571
0.732385
0.739454
0.7439
0.745785
0.745108
0.741808
0.735774
0.726846
0.714828
0.699507
0.680667
0.658115
0.631705
0.601364
0.567122
0.529136
0.487717
0.443343
0.39668
0.34858
0.30009
0.252457
0.207125
0.165581
0.13936
0.0941
0.0591636
0.0371959
0.0238534
0.0139178
0.00638392
0.00204591
0.000342038
1.08774e-05
0.0492769
0.141237
0.228971
0.310958
0.386145
0.454246
0.515184
0.569164
0.616518
0.657722
0.693277
0.723674
0.749387
0.77085
0.788451
0.802519
0.813328
0.821082
0.825921
0.827914
0.827056
0.823281
0.816459
0.806408
0.792911
0.775724
0.754608
0.729347
0.699781
0.665832
0.627539
0.585086
0.538826
0.489303
0.437262
0.38365
0.329605
0.276455
0.225719
0.178721
0.147244
0.0968168
0.0597587
0.0381383
0.025434
0.014808
0.00658841
0.00209062
0.000348389
1.26335e-05
0.0540643
0.154181
0.249751
0.339199
0.421387
0.495837
0.562569
0.621763
0.673692
0.718853
0.757793
0.791051
0.81915
0.842571
0.861748
0.87705
0.888779
0.897164
0.902361
0.904443
0.903406
0.899175
0.891603
0.880491
0.865595
0.846649
0.823388
0.795577
0.763041
0.725702
0.683607
0.636965
0.586171
0.531831
0.474768
0.416019
0.356812
0.298537
0.242739
0.190943
0.157073
0.101981
0.0635978
0.0416756
0.0280561
0.0140171
0.00563383
0.00198609
0.000337053
1.94851e-05
0.058477
0.165983
0.268625
0.364797
0.453287
0.533496
0.605457
0.669321
0.72541
0.774167
0.81618
0.852037
0.882301
0.907498
0.928103
0.944518
0.957077
0.966029
0.971543
0.973698
0.972492
0.967837
0.959576
0.947489
0.931312
0.910755
0.885533
0.855393
0.820148
0.779717
0.73416
0.683707
0.628796
0.570088
0.508483
0.445112
0.381315
0.318598
0.25863
0.203238
0.167815
0.110241
0.0701437
0.0467741
0.0311193
0.0146974
0.00685517
0.0022674
0.000460847
3.71756e-05
0.0624063
0.176396
0.285216
0.387254
0.481244
0.566525
0.642976
0.71091
0.77064
0.822551
0.867259
0.905393
0.937554
0.964308
0.986161
1.00355
1.01683
1.02628
1.03207
1.03428
1.03292
1.02789
1.01901
1.00606
0.988752
0.966771
0.939816
0.907619
0.869984
0.826831
0.778226
0.724426
0.665904
0.603375
0.537808
0.470421
0.402668
0.336194
0.272827
0.21454
0.177081
0.118272
0.076016
0.0508573
0.0334573
0.0156432
0.00721823
0.00214591
0.000565369
4.63581e-05
0.0657583
0.185212
0.299214
0.406161
0.504752
0.594278
0.674518
0.745811
0.808536
0.863112
0.910085
0.950129
0.983884
1.01194
1.03484
1.05305
1.06694
1.07679
1.08281
1.08507
1.08357
1.07822
1.06883
1.05514
1.03687
1.01368
0.985255
0.951316
0.91166
0.866205
0.81503
0.75841
0.696854
0.631124
0.562248
0.491521
0.420486
0.350905
0.284746
0.224009
0.183947
0.123821
0.079494
0.0529532
0.0347478
0.016556
0.00770388
0.00252769
0.00058602
2.84433e-05
0.0684562
0.192263
0.310374
0.421201
0.523424
0.616303
0.699568
0.773447
0.838507
0.895182
0.943948
0.985501
1.02051
1.0496
1.07333
1.09218
1.10655
1.11673
1.12292
1.12522
1.12361
1.118
1.10818
1.09391
1.07486
1.05071
1.02111
0.985772
0.9445
0.897208
0.843983
0.785122
0.721159
0.652897
0.581416
0.508068
0.434458
0.362411
0.293951
0.231134
0.189097
0.127475
0.081539
0.0540977
0.0356533
0.0174551
0.00802077
0.00272281
0.00046309
3.60668e-05
0.0704432
0.19743
0.318523
0.432154
0.536996
0.632288
0.717735
0.793483
0.86016
0.918302
0.968368
1.01101
1.04692
1.07675
1.10107
1.12038
1.13509
1.1455
1.15182
1.15414
1.15246
1.14665
1.13653
1.12182
1.10221
1.07734
1.04687
1.01051
0.968054
0.919418
0.864698
0.804204
0.738495
0.668404
0.595049
0.51983
0.444398
0.370617
0.300543
0.236275
0.193203
0.130708
0.0835908
0.0553681
0.0366437
0.0180275
0.00850595
0.00297801
0.000555101
2.94804e-05
0.0716958
0.200684
0.323648
0.439026
0.545486
0.642264
0.72905
0.805954
0.873554
0.93255
0.98341
1.02671
1.06317
1.09344
1.11812
1.13771
1.15263
1.16318
1.16958
1.17191
1.17017
1.16425
1.15393
1.13895
1.11898
1.09366
1.06264
1.02564
0.98243
0.932945
0.877284
0.815769
0.748972
0.677747
0.603239
0.526878
0.450351
0.375562
0.304603
0.239649
0.195894
0.133668
0.0858765
0.0568213
0.0374666
0.0183018
0.00883979
0.00330638
0.000938275
8.45242e-05
0.0722002
0.201996
0.325703
0.441755
0.54882
0.646136
0.733392
0.81069
0.878564
0.937802
0.988915
1.03243
1.06906
1.09948
1.12427
1.14395
1.15893
1.16953
1.17596
1.1783
1.17654
1.17057
1.16018
1.1451
1.12499
1.09949
1.06825
1.03099
0.98748
0.937657
0.881624
0.819709
0.752492
0.680838
0.605902
0.529128
0.45222
0.377104
0.305898
0.240791
0.19654
0.135345
0.0872002
0.0577141
0.0378836
0.018628
0.00890255
0.00348201
0.0010733
0.000173196
0.0719571
0.201362
0.324674
0.440315
0.546956
0.643841
0.730674
0.807567
0.875094
0.933997
0.984806
1.02807
1.06449
1.09473
1.11938
1.13896
1.15386
1.16441
1.17081
1.17315
1.17141
1.16547
1.15514
1.14012
1.12009
1.0947
1.06358
1.02645
0.983102
0.93346
0.877632
0.815946
0.748986
0.677613
0.602979
0.526524
0.449943
0.375156
0.30427
0.239435
0.194488
0.134688
0.0867103
0.0573333
0.0375915
0.0184629
0.00875998
0.00337381
0.000965858
0.000104623
0.0709693
0.198782
0.320548
0.434676
0.53985
0.635331
0.720844
0.79654
0.863066
0.921041
0.970999
1.01355
1.04937
1.07912
1.10339
1.12266
1.13734
1.14775
1.15406
1.15639
1.15469
1.14887
1.1387
1.12393
1.1042
1.07918
1.04851
1.01192
0.969178
0.920232
0.865185
0.804361
0.738335
0.667958
0.594365
0.518971
0.443444
0.369665
0.29971
0.235692
0.190673
0.132041
0.0846154
0.055892
0.0366881
0.0179852
0.00840359
0.00308865
0.000777919
3.86757e-05
0.0692454
0.194274
0.313354
0.424879
0.527556
0.620674
0.703994
0.777757
0.842585
0.899043
0.947633
0.989023
1.02388
1.05284
1.07647
1.09525
1.10957
1.11973
1.12591
1.12821
1.12659
1.12094
1.11106
1.09668
1.07747
1.05308
1.02319
0.987505
0.945824
0.898082
0.844382
0.785041
0.720621
0.651949
0.580131
0.506544
0.432809
0.360746
0.292348
0.229692
0.185449
0.128495
0.0822254
0.0542836
0.0355651
0.0172558
0.00800792
0.0028107
0.000671731
4.24421e-05
0.0667847
0.187829
0.303077
0.410907
0.510057
0.599858
0.680127
0.751241
0.813677
0.867989
0.914712
0.954516
0.98805
1.01592
1.03868
1.05678
1.07059
1.08041
1.0864
1.08865
1.08713
1.08172
1.07224
1.0584
1.03991
1.01643
0.987624
0.953227
0.913043
0.867006
0.815218
0.757982
0.695839
0.629585
0.560284
0.489261
0.418081
0.348506
0.282486
0.222057
0.179008
0.125031
0.0801529
0.0530092
0.0345469
0.0163636
0.00765441
0.00260766
0.00058885
3.15399e-05
0.0636474
0.179569
0.289893
0.392983
0.487625
0.573208
0.649655
0.717355
0.776772
0.828362
0.872743
0.910558
0.94243
0.968938
0.990594
1.00784
1.02102
1.0304
1.03615
1.03833
1.03693
1.03183
1.02283
1.0097
0.992118
0.969776
0.942362
0.909611
0.871339
0.827484
0.778141
0.723599
0.664371
0.601213
0.535134
0.467393
0.399479
0.333074
0.270011
0.212175
0.171314
0.120499
0.0775158
0.051594
0.0335192
0.0154483
0.0071885
0.00219256
0.000453476
4.03292e-05
0.0599025
0.169646
0.274023
0.371395
0.460615
0.541139
0.61307
0.676674
0.732426
0.780801
0.822412
0.857876
0.887783
0.912675
0.933031
0.949257
0.961681
0.970543
0.975995
0.978101
0.976835
0.972089
0.963681
0.951373
0.934881
0.913906
0.888154
0.857377
0.821402
0.780167
0.733763
0.682459
0.626736
0.567303
0.505106
0.441324
0.377355
0.314796
0.255485
0.201255
0.160414
0.113649
0.073058
0.0485387
0.031679
0.0145237
0.00678725
0.00232839
0.000364747
1.89764e-05
0.0556384
0.158252
0.255753
0.346525
0.429502
0.504273
0.570959
0.629894
0.681448
0.726167
0.764635
0.797435
0.825115
0.848175
0.867055
0.882127
0.893687
0.901954
0.907065
0.909076
0.907959
0.903613
0.895868
0.884503
0.869253
0.84984
0.825992
0.797478
0.764137
0.725911
0.682883
0.635301
0.583608
0.52846
0.470731
0.411511
0.352082
0.293874
0.238443
0.187503
0.149668
0.104749
0.066223
0.0436839
0.0290047
0.013732
0.00565315
0.00207314
0.000347382
1.59232e-05
0.0509589
0.145619
0.235438
0.318839
0.394856
0.463284
0.524176
0.57789
0.624832
0.66554
0.700566
0.730449
0.75569
0.776743
0.794004
0.807805
0.818412
0.82602
0.83075
0.832649
0.83169
0.827778
0.820759
0.810428
0.796546
0.778857
0.757113
0.731103
0.700678
0.665785
0.626498
0.583042
0.53582
0.485428
0.432667
0.37854
0.324236
0.271088
0.220564
0.174178
0.138859
0.0970566
0.0602686
0.0387756
0.0258877
0.0148185
0.00620744
0.00204086
0.00035057
1.14849e-05
0.0459799
0.132019
0.213495
0.288913
0.357452
0.418973
0.473653
0.521771
0.563794
0.600232
0.631599
0.658382
0.681032
0.699949
0.715483
0.727927
0.737513
0.74441
0.748723
0.750494
0.749694
0.746239
0.739989
0.730761
0.718339
0.702494
0.683004
0.659677
0.632381
0.601066
0.565798
0.526776
0.48436
0.439083
0.391665
0.343011
0.294216
0.246526
0.201267
0.159954
0.13182
0.092955
0.0576384
0.0364349
0.0237648
0.0139731
0.00634268
0.00198763
0.000313721
1.12556e-05
0.0408241
0.117752
0.190401
0.257384
0.318088
0.372385
0.420524
0.462826
0.499748
0.531769
0.559353
0.582933
0.602901
0.619605
0.633346
0.644375
0.652892
0.659041
0.662912
0.664538
0.663894
0.660905
0.655447
0.647359
0.636451
0.622522
0.605376
0.584844
0.56081
0.533228
0.502154
0.467762
0.430366
0.390436
0.348604
0.305675
0.262641
0.220706
0.18136
0.146122
0.118484
0.0895678
0.0571761
0.0359301
0.0226744
0.0130187
0.0060078
0.00189046
0.000309663
1.00056e-05
0.0356154
0.103143
0.166688
0.225007
0.277647
0.324593
0.366084
0.402501
0.43428
0.461853
0.48563
0.505984
0.523248
0.537716
0.54964
0.559231
0.566656
0.572036
0.575446
0.576913
0.576414
0.573885
0.569219
0.562278
0.552897
0.540903
0.526129
0.508429
0.4877
0.463904
0.437086
0.407395
0.375099
0.340599
0.304436
0.267296
0.230012
0.193598
0.15934
0.128619
0.100103
0.071734
0.0473437
0.0293802
0.0177056
0.00929436
0.00381029
0.00117824
0.000153194
4.2176e-06
0.0304742
0.0885335
0.14292
0.192577
0.237159
0.276787
0.311723
0.342355
0.369088
0.392303
0.41235
0.429539
0.444145
0.456409
0.466536
0.4747
0.481035
0.485643
0.488584
0.489879
0.489511
0.487423
0.483526
0.477704
0.469821
0.459729
0.447288
0.432375
0.414904
0.394842
0.372225
0.347175
0.319917
0.290783
0.260227
0.228818
0.197226
0.1662
0.136602
0.10957
0.0849858
0.0614207
0.0414405
0.0263765
0.0153756
0.00785085
0.00329587
0.000941465
0.000135029
4.57903e-06
0.0255122
0.0742662
0.119668
0.160871
0.19766
0.230219
0.258866
0.283971
0.305893
0.324955
0.341444
0.355608
0.367668
0.377813
0.386207
0.392988
0.398264
0.402115
0.40459
0.405705
0.405447
0.403769
0.400598
0.395839
0.389381
0.381105
0.370894
0.358649
0.344298
0.327813
0.309224
0.288629
0.266206
0.242227
0.217056
0.191155
0.165074
0.139383
0.114628
0.0915497
0.0705751
0.0514791
0.0351886
0.0224526
0.013044
0.00660379
0.0027319
0.000789651
0.000115453
3.90751e-06
0.0208315
0.060678
0.0975158
0.130686
0.160136
0.186094
0.208894
0.228876
0.246344
0.261559
0.274746
0.286098
0.295782
0.303944
0.31071
0.316187
0.320458
0.323586
0.32561
0.326543
0.326373
0.325063
0.322556
0.318778
0.313639
0.307045
0.298904
0.289137
0.277686
0.264529
0.249689
0.233242
0.215329
0.196159
0.176014
0.155253
0.134305
0.113634
0.093638
0.0747918
0.0575767
0.0421947
0.0290683
0.0186099
0.010816
0.00547129
0.00225083
0.000651554
9.55395e-05
3.23524e-06
0.0165218
0.0480777
0.0769875
0.102782
0.125537
0.145525
0.163064
0.178447
0.191918
0.203676
0.213889
0.222699
0.23023
0.236588
0.241868
0.246149
0.249495
0.251954
0.253554
0.254307
0.254203
0.253214
0.251297
0.248394
0.244438
0.239355
0.233076
0.225538
0.2167
0.206543
0.195083
0.18238
0.168539
0.153719
0.138133
0.122044
0.105768
0.0896676
0.0740637
0.059287
0.0457138
0.0336259
0.0233003
0.014983
0.00873092
0.00442573
0.00182019
0.000527148
7.73415e-05
2.61899e-06
0.0126578
0.03673
0.058533
0.0777868
0.0946588
0.109439
0.12241
0.133804
0.143805
0.152555
0.160173
0.166757
0.172395
0.177162
0.181127
0.184347
0.186869
0.188727
0.189943
0.190526
0.190468
0.189749
0.188338
0.186192
0.18326
0.17949
0.17483
0.169234
0.162671
0.155126
0.146614
0.137175
0.126889
0.11587
0.104274
0.0922908
0.0801431
0.0680908
0.0563868
0.0452748
0.0350217
0.0258689
0.0180238
0.0116525
0.00682072
0.00347096
0.001431
0.000415065
6.0933e-05
2.06304e-06
0.00929858
0.0268485
0.0425136
0.0561903
0.0681018
0.0785214
0.0876776
0.0957412
0.102838
0.109062
0.114493
0.119195
0.123227
0.126641
0.129483
0.131795
0.133608
0.134947
0.135828
0.136257
0.136228
0.135729
0.134737
0.133221
0.131146
0.128475
0.125172
0.121204
0.11655
0.111199
0.105161
0.0984655
0.0911668
0.083346
0.0751112
0.0665948
0.0579496
0.0493516
0.0409833
0.033021
0.0256476
0.0190384
0.0133445
0.00868351
0.00511497
0.00261806
0.00108427
0.000315414
4.63567e-05
1.56928e-06
0.00648328
0.0185747
0.0291721
0.0383118
0.0462349
0.0531686
0.059278
0.0646756
0.0694395
0.073628
0.0772886
0.0804625
0.0831871
0.0854962
0.0874206
0.0889869
0.0902171
0.0911278
0.0917295
0.092026
0.0920147
0.0916865
0.0910262
0.0900138
0.088626
0.0868378
0.0846248
0.081966
0.0788465
0.0752602
0.0712131
0.0667252
0.0618325
0.0565884
0.0510645
0.0453487
0.0395416
0.0337566
0.0281149
0.0227363
0.0177403
0.0132428
0.00934569
0.00612926
0.00364057
0.00187869
0.00078352
0.000229023
3.37276e-05
1.14166e-06
0.00422705
0.0119693
0.0186042
0.0242593
0.0291518
0.0334449
0.0372424
0.0406091
0.0435883
0.0462127
0.0485094
0.0505025
0.0522147
0.0536668
0.0548776
0.0558638
0.0566391
0.0572141
0.0575953
0.0577852
0.0577824
0.0575811
0.0571719
0.0565424
0.0556783
0.0545639
0.0531841
0.051526
0.0495804
0.0473435
0.0448192
0.0420199
0.0389682
0.0356971
0.0322505
0.0286828
0.0250563
0.0214401
0.0179085
0.0145359
0.0113958
0.00855832
0.00608586
0.00402846
0.00241836
0.00126216
0.000531955
0.000156701
2.31578e-05
7.83974e-07
0.0025195
0.00700917
0.0107558
0.0139206
0.0166636
0.0190825
0.0212316
0.0231428
0.0248374
0.026332
0.0276409
0.0287774
0.0297541
0.0305826
0.0312737
0.0318369
0.03228
0.0326091
0.0328278
0.0329378
0.0329382
0.0328257
0.032595
0.0322392
0.0317501
0.0311188
0.030337
0.0293973
0.0282944
0.0270265
0.0255956
0.0240089
0.0222792
0.0204251
0.0184715
0.0164487
0.0143921
0.0123403
0.0103348
0.00841758
0.00662949
0.00500916
0.00359078
0.00240182
0.0014608
0.000774127
0.000331447
9.89006e-05
1.47088e-05
4.98237e-07
0.00132264
0.00358222
0.00541509
0.00695918
0.00830586
0.00950053
0.010566
0.0115155
0.0123583
0.013102
0.0137534
0.0143191
0.0148053
0.0152177
0.0155619
0.0158424
0.0160633
0.0162274
0.0163368
0.0163922
0.0163931
0.0163379
0.0162242
0.0160483
0.0158062
0.0154937
0.0151064
0.0146408
0.0140943
0.013466
0.0127569
0.0119706
0.0111136
0.0101949
0.00922698
0.00822473
0.0072056
0.00618872
0.00519441
0.0042433
0.00335547
0.00254957
0.00184195
0.00124552
0.000768914
0.000415524
0.000182083
5.55422e-05
8.36432e-06
2.83841e-07
0.000571056
0.00148615
0.00221172
0.00282716
0.00336866
0.00385137
0.00428277
0.00466749
0.00500902
0.00531035
0.00557428
0.00580344
0.00600036
0.00616744
0.00630685
0.00642052
0.00651004
0.00657663
0.00662107
0.00664368
0.00664427
0.00662219
0.00657639
0.00650547
0.00640778
0.00628158
0.00612514
0.00593702
0.0057162
0.00546228
0.00517573
0.00485799
0.00451165
0.00414047
0.00374938
0.00334445
0.00293271
0.00252189
0.00212017
0.00173584
0.00137698
0.00105101
0.000764357
0.000522005
0.00032713
0.000180811
8.17958e-05
2.59082e-05
4.00906e-06
1.3683e-07
0.000175579
0.000433308
0.000637006
0.000812184
0.000967292
0.00110579
0.00122958
0.00133994
0.00143787
0.00152425
0.00159989
0.00166555
0.00172196
0.00176982
0.00180976
0.00184232
0.00186798
0.00188707
0.00189982
0.00190633
0.00190654
0.00190026
0.00188719
0.00186691
0.00183897
0.00180285
0.00175806
0.00170419
0.00164093
0.00156819
0.00148609
0.00139505
0.00129581
0.00118947
0.00107743
0.000961439
0.000843506
0.000725851
0.000610815
0.000500776
0.000398034
0.000304705
0.000222604
0.000153122
9.71128e-05
5.48006e-05
2.57067e-05
8.62785e-06
1.4203e-06
4.94002e-08
2.71346e-05
6.38e-05
9.33658e-05
0.000118982
0.000141672
0.000161917
0.00018
0.000196114
0.000210407
0.00022301
0.000234042
0.000243616
0.000251841
0.000258818
0.000264639
0.000269387
0.000273127
0.000275913
0.000277774
0.000278727
0.000278761
0.000277849
0.000275945
0.00027299
0.000268914
0.000263642
0.000257103
0.000249234
0.000239991
0.000229359
0.000217358
0.000204048
0.000189539
0.00017399
0.00015761
0.000140653
0.000123414
0.000106218
8.94089e-05
7.33338e-05
5.83291e-05
4.47033e-05
3.27198e-05
2.25792e-05
1.44034e-05
8.22147e-06
3.95487e-06
1.40756e-06
2.61195e-07
9.8411e-09
9.19979e-07
2.17093e-06
3.17398e-06
4.04121e-06
4.80878e-06
5.4934e-06
6.10471e-06
6.64926e-06
7.13217e-06
7.55785e-06
7.93038e-06
8.25363e-06
8.53126e-06
8.76672e-06
8.96318e-06
9.12339e-06
9.24964e-06
9.34367e-06
9.40655e-06
9.43881e-06
9.44006e-06
9.40932e-06
9.3451e-06
9.24534e-06
9.10763e-06
8.92943e-06
8.70827e-06
8.442e-06
8.12912e-06
7.76904e-06
7.36244e-06
6.91144e-06
6.41974e-06
5.89277e-06
5.33759e-06
4.76284e-06
4.17856e-06
3.59582e-06
3.02627e-06
2.48171e-06
1.97357e-06
1.51229e-06
1.10679e-06
7.63843e-07
4.87513e-07
2.78729e-07
1.34784e-07
4.88057e-08
9.74226e-09
6.24496e-10
9.21935e-07
3.06916e-08
4.2813e-09
4.38156e-10
3.41334e-11
4.6298e-12
1.6673e-13
9.31474e-15
1.23402e-15
1e-15
1e-15
1.04087e-15
1e-15
1e-15
4.78602e-13
5.21178e-15
5.55904e-11
7.882e-10
1.4629e-08
3.31855e-07
2.01987e-05
5.29686e-07
1.69363e-07
1.71084e-08
7.88606e-10
2.07268e-10
4.46272e-12
4.2054e-13
2.09789e-14
1e-15
1e-15
1.28403e-13
1e-15
1.27536e-12
2.88947e-13
1e-15
5.32912e-09
7.60971e-08
1.47182e-06
2.91457e-05
8.4261e-06
5.36743e-08
2.30139e-08
3.97952e-09
1.26991e-10
4.21284e-11
6.85122e-13
1.38653e-13
3.04686e-15
1e-15
1e-15
2.59775e-14
1e-15
4.64431e-13
1.25355e-13
1e-15
9.62122e-10
1.62908e-08
3.26881e-07
7.16104e-06
6.38939e-10
9.96401e-09
4.98246e-08
1.37011e-07
2.81218e-07
4.8683e-07
7.53235e-07
1.07543e-06
1.44485e-06
1.85027e-06
2.27879e-06
2.71694e-06
3.15154e-06
3.5706e-06
3.9639e-06
4.32339e-06
4.64343e-06
4.92076e-06
5.15432e-06
5.34502e-06
5.49536e-06
5.60903e-06
5.69056e-06
5.7449e-06
5.77714e-06
5.79223e-06
5.79478e-06
5.78891e-06
5.77817e-06
5.76555e-06
5.75356e-06
5.74427e-06
5.73941e-06
5.74042e-06
5.74859e-06
5.76514e-06
5.79128e-06
5.82824e-06
5.87731e-06
5.93982e-06
6.01713e-06
6.11057e-06
6.2213e-06
6.35019e-06
6.49763e-06
6.66329e-06
6.84601e-06
7.04362e-06
7.25302e-06
7.47028e-06
7.69097e-06
7.9105e-06
8.1245e-06
8.329e-06
8.52074e-06
8.69713e-06
8.85649e-06
8.9978e-06
9.12093e-06
9.22629e-06
9.31483e-06
9.38792e-06
9.44715e-06
9.49425e-06
9.53098e-06
9.55905e-06
9.58003e-06
9.59534e-06
9.60619e-06
9.61364e-06
9.61854e-06
9.62157e-06
9.62327e-06
9.62396e-06
9.62396e-06
9.6234e-06
9.62224e-06
9.62053e-06
9.61814e-06
9.61491e-06
9.61059e-06
9.60488e-06
9.59737e-06
9.5876e-06
9.57505e-06
9.55909e-06
9.53907e-06
9.51427e-06
9.48395e-06
9.44739e-06
9.4039e-06
9.35293e-06
9.29412e-06
9.22744e-06
9.15337e-06
9.07315e-06
8.9893e-06
8.9063e-06
8.83206e-06
8.78077e-06
1.00721e-08
2.67229e-07
1.43745e-06
4.02294e-06
8.30845e-06
1.44222e-05
2.2345e-05
3.19273e-05
4.29129e-05
5.49672e-05
6.77065e-05
8.0729e-05
9.36435e-05
0.000106093
0.000117774
0.000128448
0.000137947
0.000146175
0.000153101
0.000158754
0.000163206
0.00016657
0.000168979
0.000170581
0.000171527
0.000171965
0.000172032
0.00017185
0.000171524
0.000171144
0.000170783
0.000170504
0.000170358
0.000170386
0.000170628
0.000171119
0.000171897
0.000172997
0.000174457
0.000176317
0.000178619
0.000181401
0.000184698
0.000188536
0.000192927
0.000197861
0.000203303
0.00020919
0.000215428
0.0002219
0.000228474
0.000235013
0.000241387
0.000247478
0.000253189
0.000258442
0.000263188
0.000267396
0.000271062
0.0002742
0.000276837
0.000279014
0.000280778
0.000282181
0.000283276
0.000284113
0.000284739
0.000285195
0.000285519
0.000285742
0.000285888
0.000285979
0.00028603
0.000286051
0.000286052
0.000286035
0.000286001
0.00028595
0.000285879
0.000285783
0.000285654
0.000285484
0.000285261
0.00028497
0.000284596
0.000284122
0.000283526
0.000282788
0.000281885
0.000280797
0.000279503
0.000277986
0.000276236
0.000274252
0.000272048
0.000269661
0.000267164
0.000264693
0.00026248
0.000260942
5.0654e-08
1.45576e-06
8.82838e-06
2.62081e-05
5.55334e-05
9.75652e-05
0.000152115
0.000218119
0.000293783
0.000376778
0.000464442
0.000553994
0.000642734
0.000728203
0.000808317
0.000881442
0.000946438
0.00100265
0.00104989
0.00108836
0.00111858
0.00114132
0.00115752
0.00116819
0.0011744
0.00117714
0.00117737
0.00117593
0.00117352
0.00117078
0.0011682
0.0011662
0.00116512
0.00116527
0.00116691
0.00117027
0.00117562
0.0011832
0.00119327
0.00120611
0.001222
0.00124122
0.001264
0.00129054
0.00132092
0.00135507
0.00139275
0.00143353
0.00147675
0.0015216
0.00156715
0.00161245
0.0016566
0.00169877
0.0017383
0.00177466
0.0018075
0.00183661
0.00186198
0.00188368
0.00190192
0.00191698
0.00192919
0.0019389
0.00194649
0.00195229
0.00195663
0.0019598
0.00196205
0.0019636
0.00196463
0.00196527
0.00196563
0.00196578
0.00196579
0.00196568
0.00196545
0.0019651
0.00196461
0.00196395
0.00196307
0.0019619
0.00196035
0.00195835
0.00195577
0.0019525
0.00194839
0.0019433
0.00193708
0.00192957
0.00192065
0.00191019
0.00189812
0.00188443
0.00186922
0.00185272
0.00183546
0.00181832
0.00180289
0.0017919
1.40855e-07
4.12651e-06
2.6628e-05
8.37764e-05
0.000184105
0.000330272
0.000521162
0.000752669
0.00101823
0.00130946
0.00161685
0.00193054
0.00224098
0.00253954
0.00281891
0.0030734
0.00329909
0.00349376
0.00365682
0.00378907
0.00389243
0.00396968