/*--------------------------------*- C++ -*----------------------------------*\
| =========                 |                                                 |
| \\      /  F ield         | foam-extend: Open Source CFD                    |
|  \\    /   O peration     | Version:     4.0                                |
|   \\  /    A nd           | Web:         http://www.foam-extend.org         |
|    \\/     M anipulation  |                                                 |
\*---------------------------------------------------------------------------*/
FoamFile
{
    version     2.0;
    format      ascii;
    class       volScalarField;
    location    "0.0008";
    object      nut;
}
// * * * * * * * * * * * * * * * * * * * * * * * * * * * * * * * * * * * * * //

dimensions      [0 2 -1 0 0 0 0];

internalField   nonuniform List<scalar> 
28770
(
3.86454e-14
9.48318e-14
1.42569e-13
1.86051e-13
2.25633e-13
2.61942e-13
2.95055e-13
3.25085e-13
3.52117e-13
3.76244e-13
3.97577e-13
4.16247e-13
4.32394e-13
4.46168e-13
4.57719e-13
4.67191e-13
4.74716e-13
4.80407e-13
4.84356e-13
4.86624e-13
4.87244e-13
4.86219e-13
4.83516e-13
4.79075e-13
4.72819e-13
4.64647e-13
4.54453e-13
4.42133e-13
4.27598e-13
4.10787e-13
3.9168e-13
3.7031e-13
3.46779e-13
3.21261e-13
2.94015e-13
2.65382e-13
2.35786e-13
2.05728e-13
1.7577e-13
1.46523e-13
1.18619e-13
9.26849e-14
6.93066e-14
4.89901e-14
3.21235e-14
1.8941e-14
9.48991e-15
3.59046e-15
7.65614e-16
5.53724e-17
8.12537e-12
1.66733e-11
2.46621e-11
3.21097e-11
3.89206e-11
4.51704e-11
5.08724e-11
5.60436e-11
6.06984e-11
6.48529e-11
6.85264e-11
7.17412e-11
7.45216e-11
7.68934e-11
7.88824e-11
8.05132e-11
8.18086e-11
8.27882e-11
8.34675e-11
8.38572e-11
8.39628e-11
8.37848e-11
8.33173e-11
8.25503e-11
8.147e-11
8.00592e-11
7.82997e-11
7.61736e-11
7.36655e-11
7.07648e-11
6.74681e-11
6.37815e-11
5.97224e-11
5.5321e-11
5.0622e-11
4.56845e-11
4.05815e-11
3.53995e-11
3.02355e-11
2.51949e-11
2.03866e-11
1.59189e-11
1.18925e-11
8.39457e-12
5.49174e-12
3.22357e-12
1.59582e-12
5.72612e-13
8.55187e-14
8.6073e-16
2.14265e-10
3.6096e-10
5.07844e-10
6.52553e-10
7.88035e-10
9.13216e-10
1.02773e-09
1.13167e-09
1.22526e-09
1.3088e-09
1.38267e-09
1.44732e-09
1.50323e-09
1.55092e-09
1.5909e-09
1.62368e-09
1.64971e-09
1.66938e-09
1.68299e-09
1.69077e-09
1.69282e-09
1.68913e-09
1.67961e-09
1.66403e-09
1.64211e-09
1.61352e-09
1.57787e-09
1.5348e-09
1.48401e-09
1.42529e-09
1.35856e-09
1.28396e-09
1.20184e-09
1.11282e-09
1.0178e-09
9.17994e-10
8.14877e-10
7.102e-10
6.05928e-10
5.04189e-10
4.07188e-10
3.17101e-10
2.35952e-10
1.65467e-10
1.06924e-10
6.10066e-11
2.7831e-11
7.67101e-12
6.1141e-13
4.03766e-15
2.11387e-09
2.96827e-09
3.90238e-09
4.88328e-09
5.83821e-09
6.73735e-09
7.56725e-09
8.32361e-09
9.0059e-09
9.61546e-09
1.01547e-08
1.06266e-08
1.10348e-08
1.13829e-08
1.16747e-08
1.19139e-08
1.21036e-08
1.22468e-08
1.23457e-08
1.24018e-08
1.24158e-08
1.23878e-08
1.23168e-08
1.22012e-08
1.2039e-08
1.18276e-08
1.15641e-08
1.1246e-08
1.08709e-08
1.04374e-08
9.94491e-09
9.39444e-09
8.78864e-09
8.13215e-09
7.43169e-09
6.69614e-09
5.93647e-09
5.16558e-09
4.39794e-09
3.64914e-09
2.93528e-09
2.27215e-09
1.67421e-09
1.15359e-09
7.19456e-10
3.79396e-10
1.45024e-10
2.9065e-11
1.73089e-12
1.0629e-14
1.18466e-08
1.461e-08
1.79973e-08
2.17765e-08
2.56157e-08
2.93294e-08
3.28122e-08
3.60149e-08
3.89181e-08
4.15188e-08
4.38227e-08
4.58407e-08
4.75867e-08
4.90758e-08
5.0324e-08
5.13463e-08
5.21569e-08
5.27676e-08
5.31879e-08
5.34241e-08
5.34792e-08
5.33526e-08
5.30404e-08
5.25355e-08
5.18286e-08
5.09083e-08
4.97625e-08
4.83795e-08
4.67496e-08
4.48659e-08
4.27266e-08
4.03359e-08
3.77056e-08
3.48557e-08
3.18156e-08
2.86238e-08
2.53277e-08
2.19829e-08
1.86514e-08
1.53998e-08
1.22963e-08
9.4078e-09
6.79646e-09
4.51975e-09
2.6383e-09
1.23366e-09
3.91783e-10
6.48766e-11
3.50957e-12
2.11318e-14
4.59442e-08
5.226e-08
6.10408e-08
7.13946e-08
8.23366e-08
9.32306e-08
1.03655e-07
1.13369e-07
1.22248e-07
1.30243e-07
1.37348e-07
1.43583e-07
1.48984e-07
1.53593e-07
1.57457e-07
1.6062e-07
1.63126e-07
1.65011e-07
1.66302e-07
1.67019e-07
1.6717e-07
1.66752e-07
1.65752e-07
1.64146e-07
1.61905e-07
1.58991e-07
1.55367e-07
1.50994e-07
1.45841e-07
1.39888e-07
1.33127e-07
1.25573e-07
1.17261e-07
1.08256e-07
9.86486e-08
8.85594e-08
7.81361e-08
6.75509e-08
5.69954e-08
4.66757e-08
3.6806e-08
2.76054e-08
1.93039e-08
1.21657e-08
6.52112e-09
2.70656e-09
7.56191e-10
1.14524e-10
5.98319e-12
3.56993e-14
1.38144e-07
1.50028e-07
1.68269e-07
1.90927e-07
2.15723e-07
2.4109e-07
2.65881e-07
2.8934e-07
3.11022e-07
3.30693e-07
3.48264e-07
3.63736e-07
3.77166e-07
3.88643e-07
3.98269e-07
4.06151e-07
4.12389e-07
4.1707e-07
4.20261e-07
4.22005e-07
4.22321e-07
4.21196e-07
4.18594e-07
4.14454e-07
4.08694e-07
4.01219e-07
3.91929e-07
3.80725e-07
3.67526e-07
3.52275e-07
3.34955e-07
3.15596e-07
2.94292e-07
2.71198e-07
2.46546e-07
2.20637e-07
1.93839e-07
1.66586e-07
1.39363e-07
1.12707e-07
8.72133e-08
6.35582e-08
4.25547e-08
2.5182e-08
1.2428e-08
4.71407e-09
1.22346e-09
1.77763e-10
9.14065e-12
5.42224e-14
3.45946e-07
3.66154e-07
3.98589e-07
4.40936e-07
4.88701e-07
5.38755e-07
5.8865e-07
6.36623e-07
6.81508e-07
7.22608e-07
7.59567e-07
7.92268e-07
8.20748e-07
8.45138e-07
8.65622e-07
8.82401e-07
8.95671e-07
9.05602e-07
9.12328e-07
9.15931e-07
9.16437e-07
9.13816e-07
9.07973e-07
8.98766e-07
8.8601e-07
8.69487e-07
8.48969e-07
8.24232e-07
7.95089e-07
7.61407e-07
7.23138e-07
6.80341e-07
6.33206e-07
5.82066e-07
5.27414e-07
4.69898e-07
4.10326e-07
3.49658e-07
2.8902e-07
2.29737e-07
1.73402e-07
1.21984e-07
7.7836e-08
4.33589e-08
2.00274e-08
7.15956e-09
1.78393e-09
2.53781e-10
1.29325e-11
7.64245e-14
7.54764e-07
7.87014e-07
8.3959e-07
9.10212e-07
9.91773e-07
1.07899e-06
1.16747e-06
1.25382e-06
1.33563e-06
1.41129e-06
1.47986e-06
1.54088e-06
1.59426e-06
1.64011e-06
1.6787e-06
1.71032e-06
1.73532e-06
1.75397e-06
1.76649e-06
1.77301e-06
1.77357e-06
1.76806e-06
1.75629e-06
1.73795e-06
1.71266e-06
1.67996e-06
1.6394e-06
1.5905e-06
1.53287e-06
1.46623e-06
1.39045e-06
1.30563e-06
1.21209e-06
1.11048e-06
1.00175e-06
8.87172e-07
7.68407e-07
6.47505e-07
5.27007e-07
4.10087e-07
3.00727e-07
2.0373e-07
1.24149e-07
6.57489e-08
2.89497e-08
9.97021e-09
2.42711e-09
3.41173e-10
1.72859e-11
1.01951e-13
1.47816e-06
1.52941e-06
1.60946e-06
1.71728e-06
1.84409e-06
1.98195e-06
2.12393e-06
2.26439e-06
2.39902e-06
2.52476e-06
2.63965e-06
2.74257e-06
2.83305e-06
2.91106e-06
2.97686e-06
3.03085e-06
3.07348e-06
3.10516e-06
3.1262e-06
3.13675e-06
3.1368e-06
3.12613e-06
3.1043e-06
3.07074e-06
3.0247e-06
2.96532e-06
2.89169e-06
2.80295e-06
2.69831e-06
2.5772e-06
2.43933e-06
2.28481e-06
2.11419e-06
1.92861e-06
1.72982e-06
1.52033e-06
1.30344e-06
1.08349e-06
8.66065e-07
6.58206e-07
4.68467e-07
3.06169e-07
1.79307e-07
9.13269e-08
3.88985e-08
1.30818e-08
3.13982e-09
4.38133e-10
2.21107e-11
1.30263e-13
2.64974e-06
2.73478e-06
2.85341e-06
3.00609e-06
3.18877e-06
3.39012e-06
3.6001e-06
3.81025e-06
4.0138e-06
4.2057e-06
4.38244e-06
4.54183e-06
4.6827e-06
4.80464e-06
4.90777e-06
4.99249e-06
5.05929e-06
5.10866e-06
5.14095e-06
5.15628e-06
5.15448e-06
5.13506e-06
5.0972e-06
5.03983e-06
4.96157e-06
4.86089e-06
4.73616e-06
4.5858e-06
4.40839e-06
4.20283e-06
3.96855e-06
3.70562e-06
3.415e-06
3.09869e-06
2.75997e-06
2.40367e-06
2.03643e-06
1.66711e-06
1.30705e-06
9.69991e-07
6.71205e-07
4.25066e-07
2.41024e-07
1.19238e-07
4.96373e-08
1.64348e-08
3.90839e-09
5.42761e-10
2.72965e-11
1.60515e-13
4.40293e-06
4.55199e-06
4.72305e-06
4.93234e-06
5.18065e-06
5.45627e-06
5.74632e-06
6.03934e-06
6.32572e-06
6.59795e-06
6.85053e-06
7.07978e-06
7.28347e-06
7.46051e-06
7.61062e-06
7.73402e-06
7.83111e-06
7.90234e-06
7.94795e-06
7.96786e-06
7.96157e-06
7.9281e-06
7.86595e-06
7.77322e-06
7.64757e-06
7.48637e-06
7.28684e-06
7.04626e-06
6.76219e-06
6.43273e-06
6.05682e-06
5.6346e-06
5.16775e-06
4.65995e-06
4.11738e-06
3.54926e-06
2.96843e-06
2.3917e-06
1.83971e-06
1.33555e-06
9.01849e-07
5.56428e-07
3.07442e-07
1.48793e-07
6.0981e-08
1.99955e-08
4.72755e-09
6.54757e-10
3.27952e-11
1.91697e-13
6.84098e-06
7.11239e-06
7.36053e-06
7.64371e-06
7.96547e-06
8.32291e-06
8.701e-06
9.08552e-06
9.46402e-06
9.82633e-06
1.01647e-05
1.04735e-05
1.07493e-05
1.09899e-05
1.11944e-05
1.13624e-05
1.14942e-05
1.15899e-05
1.16493e-05
1.1672e-05
1.16567e-05
1.16018e-05
1.15045e-05
1.13618e-05
1.11697e-05
1.0924e-05
1.06202e-05
1.02539e-05
9.82118e-06
9.31893e-06
8.74556e-06
8.10149e-06
7.38994e-06
6.61776e-06
5.79637e-06
4.94267e-06
4.07973e-06
3.23658e-06
2.44651e-06
1.74311e-06
1.15444e-06
6.9764e-07
3.7727e-07
1.79406e-07
7.2816e-08
2.38006e-08
5.61905e-09
7.78088e-10
3.88055e-11
2.24871e-13
1.00017e-05
1.04942e-05
1.08602e-05
1.12453e-05
1.16503e-05
1.20938e-05
1.25631e-05
1.3042e-05
1.35156e-05
1.39714e-05
1.43992e-05
1.47917e-05
1.51436e-05
1.54516e-05
1.57137e-05
1.59289e-05
1.60967e-05
1.62167e-05
1.6288e-05
1.63094e-05
1.62785e-05
1.61923e-05
1.60466e-05
1.58362e-05
1.55552e-05
1.51969e-05
1.47545e-05
1.42213e-05
1.35911e-05
1.28596e-05
1.20246e-05
1.10876e-05
1.00548e-05
8.93845e-06
7.7587e-06
6.54444e-06
5.33365e-06
4.1717e-06
3.1068e-06
2.18213e-06
1.42629e-06
8.47897e-07
4.49768e-07
2.10701e-07
8.5365e-08
2.81103e-08
6.66055e-09
9.24749e-10
4.53189e-11
2.61107e-13
1.38327e-05
1.46906e-05
1.52347e-05
1.57543e-05
1.62699e-05
1.68041e-05
1.73643e-05
1.79348e-05
1.85e-05
1.90456e-05
1.95596e-05
2.00329e-05
2.04585e-05
2.08318e-05
2.11496e-05
2.14099e-05
2.16112e-05
2.1752e-05
2.18305e-05
2.1844e-05
2.17886e-05
2.16592e-05
2.14496e-05
2.11518e-05
2.07571e-05
2.02556e-05
1.96372e-05
1.88923e-05
1.80124e-05
1.69914e-05
1.58273e-05
1.45237e-05
1.30917e-05
1.15526e-05
9.93915e-06
8.29687e-06
6.68303e-06
5.16246e-06
3.79928e-06
2.64474e-06
1.72118e-06
1.0063e-06
5.22259e-07
2.42729e-07
9.97902e-08
3.38349e-08
8.15106e-09
1.1388e-09
5.45121e-11
2.63011e-13
1.81881e-05
1.95923e-05
2.0395e-05
2.10974e-05
2.17617e-05
2.2396e-05
2.30448e-05
2.37006e-05
2.43487e-05
2.49744e-05
2.55648e-05
2.61094e-05
2.66001e-05
2.70309e-05
2.73972e-05
2.76959e-05
2.7924e-05
2.80789e-05
2.81569e-05
2.81536e-05
2.8063e-05
2.78774e-05
2.75874e-05
2.71819e-05
2.66482e-05
2.59726e-05
2.51412e-05
2.41407e-05
2.29598e-05
2.15913e-05
2.00339e-05
1.82951e-05
1.6394e-05
1.4364e-05
1.22547e-05
1.01322e-05
8.07598e-06
6.17158e-06
4.49962e-06
3.12374e-06
2.37383e-06
1.30606e-06
6.73293e-07
3.20231e-07
1.4052e-07
5.27522e-08
1.46377e-08
2.43355e-09
1.72472e-10
9.41617e-13
2.28515e-05
2.49941e-05
2.61467e-05
2.70871e-05
2.79365e-05
2.8705e-05
2.94435e-05
3.01777e-05
3.08973e-05
3.15896e-05
3.22422e-05
3.28442e-05
3.33866e-05
3.38623e-05
3.42658e-05
3.45923e-05
3.48376e-05
3.49969e-05
3.5065e-05
3.50348e-05
3.48976e-05
3.46425e-05
3.42565e-05
3.37242e-05
3.30286e-05
3.21514e-05
3.1074e-05
2.97793e-05
2.82534e-05
2.64882e-05
2.44846e-05
2.2256e-05
1.98321e-05
1.72619e-05
1.46152e-05
1.19809e-05
9.46085e-06
7.15919e-06
5.16726e-06
3.54487e-06
2.61149e-06
1.42241e-06
7.03947e-07
3.34112e-07
1.53607e-07
5.99814e-08
1.66569e-08
2.73863e-09
1.69802e-10
8.76811e-13
2.75777e-05
3.06282e-05
3.22188e-05
3.34539e-05
3.45222e-05
3.54705e-05
3.63091e-05
3.71163e-05
3.78963e-05
3.8641e-05
3.93401e-05
3.99832e-05
4.05617e-05
4.10677e-05
4.14947e-05
4.18367e-05
4.20876e-05
4.22409e-05
4.22887e-05
4.22215e-05
4.20272e-05
4.16911e-05
4.11959e-05
4.05217e-05
3.96463e-05
3.85463e-05
3.71984e-05
3.55814e-05
3.3679e-05
3.14833e-05
2.89985e-05
2.62462e-05
2.32692e-05
2.01345e-05
1.69339e-05
1.37796e-05
1.07943e-05
8.09688e-06
5.7857e-06
3.91438e-06
2.81417e-06
1.49214e-06
7.2463e-07
3.49515e-07
1.67473e-07
6.53856e-08
1.76328e-08
2.86116e-09
1.75167e-10
1.02005e-12
3.21332e-05
3.62079e-05
3.83042e-05
3.98804e-05
4.11982e-05
4.23485e-05
4.33259e-05
4.42044e-05
4.50366e-05
4.5821e-05
4.65519e-05
4.7221e-05
4.78202e-05
4.83419e-05
4.87788e-05
4.91238e-05
4.93693e-05
4.95064e-05
4.9525e-05
4.94122e-05
4.91526e-05
4.87273e-05
4.81145e-05
4.7289e-05
4.62235e-05
4.48891e-05
4.32578e-05
4.13047e-05
3.90116e-05
3.63713e-05
3.33933e-05
3.01086e-05
2.65746e-05
2.28781e-05
1.91332e-05
1.54748e-05
1.20443e-05
8.97224e-06
6.36012e-06
4.26211e-06
3.05282e-06
1.59851e-06
7.84261e-07
3.88859e-07
1.88638e-07
5.99789e-08
1.45078e-08
2.59128e-09
1.58912e-10
1.15004e-12
3.63249e-05
4.14679e-05
4.4105e-05
4.60484e-05
4.76346e-05
4.89889e-05
5.01413e-05
5.1105e-05
5.1984e-05
5.27988e-05
5.35497e-05
5.42319e-05
5.4839e-05
5.5364e-05
5.57994e-05
5.61371e-05
5.63678e-05
5.6481e-05
5.64636e-05
5.62998e-05
5.59704e-05
5.54525e-05
5.47193e-05
5.37407e-05
5.2484e-05
5.09153e-05
4.90017e-05
4.67152e-05
4.40362e-05
4.09596e-05
3.75005e-05
3.37006e-05
2.96328e-05
2.54032e-05
2.11476e-05
1.70217e-05
1.31841e-05
9.77524e-06
6.89901e-06
4.60925e-06
3.309e-06
1.7538e-06
8.78019e-07
4.4339e-07
2.12869e-07
6.411e-08
1.80583e-08
3.03977e-09
2.22172e-10
2.19762e-12
4.0011e-05
4.61906e-05
4.9364e-05
5.16754e-05
5.35315e-05
5.50885e-05
5.64106e-05
5.74916e-05
5.84155e-05
5.92544e-05
6.00167e-05
6.07028e-05
6.13085e-05
6.18279e-05
6.22535e-05
6.25765e-05
6.27866e-05
6.2871e-05
6.28144e-05
6.2598e-05
6.2199e-05
6.15904e-05
6.07409e-05
5.96156e-05
5.81767e-05
5.63855e-05
5.42052e-05
5.16048e-05
4.85643e-05
4.5081e-05
4.11764e-05
3.69028e-05
3.23481e-05
2.76366e-05
2.29238e-05
1.83833e-05
1.41881e-05
1.04869e-05
7.38509e-06
4.93124e-06
3.53576e-06
1.90663e-06
9.64566e-07
4.89066e-07
2.32355e-07
6.9306e-08
1.92966e-08
2.9082e-09
2.73518e-10
2.74054e-12
4.30994e-05
5.02149e-05
5.38815e-05
5.65342e-05
5.86422e-05
6.03884e-05
6.18565e-05
6.30676e-05
6.40474e-05
6.49052e-05
6.56733e-05
6.63574e-05
6.6956e-05
6.74645e-05
6.78758e-05
6.81806e-05
6.83675e-05
6.84222e-05
6.83271e-05
6.80606e-05
6.75969e-05
6.6905e-05
6.59499e-05
6.46922e-05
6.30897e-05
6.10994e-05
5.86813e-05
5.58022e-05
5.2442e-05
4.86008e-05
4.43063e-05
3.96208e-05
3.46457e-05
2.95214e-05
2.44199e-05
1.95297e-05
1.50346e-05
1.10893e-05
7.79972e-06
5.20725e-06
3.71303e-06
2.02026e-06
1.02182e-06
5.16496e-07
2.45094e-07
7.46218e-08
2.09691e-08
3.4914e-09
2.89438e-10
1.69359e-12
4.55369e-05
5.34325e-05
5.75155e-05
6.04585e-05
6.27817e-05
6.469e-05
6.62802e-05
6.75966e-05
6.86467e-05
6.95218e-05
7.02922e-05
7.09709e-05
7.156e-05
7.20558e-05
7.24518e-05
7.27383e-05
7.29031e-05
7.29305e-05
7.28011e-05
7.24911e-05
7.19719e-05
7.12096e-05
7.01655e-05
6.87968e-05
6.70575e-05
6.49016e-05
6.22861e-05
5.91764e-05
5.55528e-05
5.14179e-05
4.6805e-05
4.1785e-05
3.64707e-05
3.10154e-05
2.56043e-05
2.04373e-05
1.57056e-05
1.15674e-05
8.12739e-06
5.4227e-06
3.85206e-06
2.10276e-06
1.06136e-06
5.35612e-07
2.56074e-07
8.05359e-08
2.24635e-08
3.90694e-09
2.23098e-10
3.0241e-12
4.72978e-05
5.57785e-05
6.01758e-05
6.33386e-05
6.58252e-05
6.78564e-05
6.95386e-05
7.09277e-05
7.2042e-05
7.29366e-05
7.37054e-05
7.43774e-05
7.49569e-05
7.54411e-05
7.58235e-05
7.60946e-05
7.62412e-05
7.62467e-05
7.60904e-05
7.57468e-05
7.5185e-05
7.4369e-05
7.32575e-05
7.18049e-05
6.99626e-05
6.76821e-05
6.49185e-05
6.16364e-05
5.78163e-05
5.34633e-05
4.8615e-05
4.33489e-05
3.77863e-05
3.20901e-05
2.64552e-05
2.10892e-05
1.61888e-05
1.19135e-05
8.3667e-06
5.58239e-06
3.96338e-06
2.17651e-06
1.10086e-06
5.56645e-07
2.68741e-07
8.58464e-08
2.49016e-08
4.51859e-09
2.79151e-10
2.49338e-12
4.83845e-05
5.72375e-05
6.1836e-05
6.51384e-05
6.77281e-05
6.98363e-05
7.15753e-05
7.30066e-05
7.416e-05
7.50722e-05
7.58377e-05
7.65035e-05
7.70752e-05
7.75506e-05
7.79234e-05
7.81837e-05
7.8318e-05
7.83091e-05
7.81354e-05
7.77701e-05
7.71812e-05
7.6331e-05
7.51766e-05
7.36707e-05
7.1763e-05
6.94035e-05
6.65461e-05
6.31548e-05
5.92109e-05
5.47207e-05
4.97249e-05
4.43053e-05
3.85886e-05
3.27438e-05
2.69715e-05
2.14842e-05
1.64819e-05
1.2125e-05
8.5161e-06
5.6878e-06
4.03586e-06
2.24142e-06
1.14148e-06
5.78854e-07
2.80376e-07
9.02708e-08
2.75616e-08
5.65692e-09
7.26116e-10
1.53352e-11
4.87896e-05
5.77815e-05
6.24535e-05
6.58047e-05
6.84285e-05
7.05605e-05
7.23157e-05
7.37571e-05
7.49194e-05
7.58354e-05
7.65964e-05
7.72577e-05
7.78248e-05
7.82957e-05
7.8664e-05
7.89198e-05
7.90493e-05
7.90352e-05
7.88552e-05
7.84823e-05
7.78839e-05
7.70217e-05
7.58521e-05
7.4327e-05
7.23956e-05
7.00071e-05
6.71154e-05
6.36843e-05
5.9695e-05
5.51549e-05
5.01057e-05
4.46308e-05
3.88591e-05
3.29618e-05
2.71415e-05
2.16126e-05
1.6576e-05
1.21927e-05
8.56486e-06
5.72394e-06
4.05278e-06
2.27718e-06
1.16447e-06
5.92082e-07
2.86789e-07
9.37258e-08
2.89675e-08
6.63643e-09
1.10984e-09
8.76063e-11
4.85142e-05
5.7403e-05
6.20139e-05
6.53176e-05
6.79024e-05
7.00022e-05
7.1731e-05
7.315e-05
7.42889e-05
7.51873e-05
7.59441e-05
7.66036e-05
7.717e-05
7.7641e-05
7.80104e-05
7.82683e-05
7.84011e-05
7.83913e-05
7.8217e-05
7.78513e-05
7.72618e-05
7.64106e-05
7.52544e-05
7.37457e-05
7.18338e-05
6.94687e-05
6.66043e-05
6.32046e-05
5.92511e-05
5.47508e-05
4.97446e-05
4.4315e-05
3.85894e-05
3.27375e-05
2.696e-05
2.14699e-05
1.6467e-05
1.2112e-05
8.50686e-06
5.68279e-06
3.99977e-06
2.26357e-06
1.1561e-06
5.8676e-07
2.83429e-07
9.1747e-08
2.77362e-08
5.98723e-09
7.85072e-10
2.28283e-11
4.75601e-05
5.61071e-05
6.05238e-05
6.36851e-05
6.61596e-05
6.81724e-05
6.98328e-05
7.11961e-05
7.22818e-05
7.31513e-05
7.39033e-05
7.45622e-05
7.51306e-05
7.56058e-05
7.59815e-05
7.62477e-05
7.6391e-05
7.63945e-05
7.6237e-05
7.58925e-05
7.53296e-05
7.45115e-05
7.33965e-05
7.19383e-05
7.0088e-05
6.77967e-05
6.50195e-05
6.17212e-05
5.78829e-05
5.35104e-05
4.86423e-05
4.33574e-05
3.77783e-05
3.2069e-05
2.6425e-05
2.10546e-05
1.61542e-05
1.18831e-05
8.34364e-06
5.5687e-06
3.89887e-06
2.2073e-06
1.12004e-06
5.6594e-07
2.71945e-07
8.64195e-08
2.49641e-08
4.79618e-09
4.74409e-10
3.29857e-12
4.59316e-05
5.39166e-05
5.80197e-05
6.09548e-05
6.32562e-05
6.51347e-05
6.66902e-05
6.79669e-05
6.89759e-05
6.98178e-05
7.05634e-05
7.12217e-05
7.17939e-05
7.22762e-05
7.26618e-05
7.29409e-05
7.31006e-05
7.31247e-05
7.29933e-05
7.26819e-05
7.21607e-05
7.13952e-05
7.0346e-05
6.89691e-05
6.72184e-05
6.5047e-05
6.24122e-05
5.92796e-05
5.56301e-05
5.14677e-05
4.6827e-05
4.17809e-05
3.64438e-05
3.09707e-05
2.55481e-05
2.03763e-05
1.56463e-05
1.15145e-05
8.08323e-06
5.38899e-06
3.76127e-06
2.13021e-06
1.07683e-06
5.41659e-07
2.58091e-07
8.01993e-08
2.26413e-08
4.0778e-09
3.84276e-10
3.55978e-12
4.36109e-05
5.08335e-05
5.45194e-05
5.7157e-05
5.92337e-05
6.09392e-05
6.23602e-05
6.35193e-05
6.44491e-05
6.52675e-05
6.60035e-05
6.66605e-05
6.72368e-05
6.77274e-05
6.81249e-05
6.84196e-05
6.85996e-05
6.86497e-05
6.85516e-05
6.82829e-05
6.78163e-05
6.71203e-05
6.61584e-05
6.48903e-05
6.32731e-05
6.12635e-05
5.88212e-05
5.59134e-05
5.2521e-05
4.86455e-05
4.43165e-05
3.95987e-05
3.45957e-05
2.94499e-05
2.4335e-05
1.94403e-05
1.49489e-05
1.10137e-05
7.73799e-06
5.16199e-06
3.59435e-06
2.05159e-06
1.0369e-06
5.2091e-07
2.45824e-07
7.41466e-08
2.09665e-08
3.63417e-09
2.95521e-10
1.93071e-12
4.06251e-05
4.69214e-05
5.01108e-05
5.23994e-05
5.42151e-05
5.57214e-05
5.69855e-05
5.80051e-05
5.88744e-05
5.96683e-05
6.03923e-05
6.10458e-05
6.16245e-05
6.21221e-05
6.25308e-05
6.28414e-05
6.30426e-05
6.31211e-05
6.30606e-05
6.28409e-05
6.24383e-05
6.18243e-05
6.09665e-05
5.9829e-05
5.83729e-05
5.65591e-05
5.43507e-05
5.17171e-05
4.86393e-05
4.51164e-05
4.1172e-05
3.6861e-05
3.22741e-05
2.75381e-05
2.28103e-05
1.82654e-05
1.40761e-05
1.03898e-05
7.30902e-06
4.87698e-06
3.39987e-06
1.9546e-06
9.90079e-07
4.9969e-07
2.34573e-07
6.87197e-08
1.9293e-08
2.9816e-09
2.19801e-10
2.3843e-12
3.70211e-05
4.22815e-05
4.49286e-05
4.68416e-05
4.83794e-05
4.96748e-05
5.07615e-05
5.16591e-05
5.24811e-05
5.32468e-05
5.39548e-05
5.46003e-05
5.5177e-05
5.56773e-05
5.60933e-05
5.64165e-05
5.66368e-05
5.67428e-05
5.67203e-05
5.65523e-05
5.62184e-05
5.56941e-05
5.49515e-05
5.39592e-05
5.26835e-05
5.10899e-05
4.91456e-05
4.68227e-05
4.4103e-05
4.09831e-05
3.74804e-05
3.36395e-05
2.95363e-05
2.52797e-05
2.10077e-05
1.68774e-05
1.30475e-05
9.65879e-06
6.81527e-06
4.56437e-06
3.14106e-06
1.82039e-06
9.20898e-07
4.63504e-07
2.18384e-07
6.36135e-08
1.79521e-08
3.13145e-09
1.76022e-10
1.12179e-12
3.28855e-05
3.70689e-05
3.91673e-05
4.07059e-05
4.19694e-05
4.30553e-05
4.39629e-05
4.47759e-05
4.55501e-05
4.62832e-05
4.69689e-05
4.75992e-05
4.81659e-05
4.86611e-05
4.90771e-05
4.94062e-05
4.964e-05
4.97688e-05
4.97814e-05
4.96636e-05
4.93985e-05
4.89661e-05
4.8343e-05
4.75029e-05
4.64174e-05
4.50571e-05
4.33937e-05
4.14027e-05
3.90672e-05
3.63817e-05
3.33582e-05
3.00304e-05
2.6459e-05
2.27337e-05
1.89712e-05
1.53076e-05
1.1885e-05
8.83234e-06
6.24769e-06
4.18539e-06
2.88547e-06
1.65453e-06
8.2296e-07
4.10952e-07
1.96787e-07
5.90747e-08
1.46586e-08
2.73207e-09
1.65674e-10
9.41098e-13
2.83547e-05
3.14967e-05
3.30804e-05
3.42725e-05
3.52834e-05
3.61656e-05
3.69356e-05
3.76801e-05
3.84034e-05
3.90971e-05
3.9751e-05
4.03552e-05
4.09008e-05
4.13798e-05
4.17853e-05
4.21106e-05
4.23491e-05
4.24934e-05
4.25345e-05
4.24615e-05
4.22612e-05
4.19174e-05
4.14116e-05
4.07225e-05
3.9827e-05
3.8701e-05
3.73211e-05
3.56665e-05
3.37219e-05
3.1481e-05
2.89507e-05
2.6155e-05
2.31399e-05
1.99756e-05
1.67565e-05
1.35965e-05
1.06187e-05
7.9399e-06
5.65367e-06
3.81494e-06
2.6289e-06
1.50898e-06
7.37181e-07
3.58659e-07
1.72263e-07
6.61689e-08
1.68548e-08
2.84984e-09
1.81329e-10
9.44182e-13
2.3618e-05
2.58291e-05
2.69665e-05
2.7861e-05
2.8653e-05
2.93577e-05
3.00335e-05
3.07097e-05
3.13761e-05
3.20203e-05
3.26301e-05
3.31949e-05
3.37056e-05
3.41551e-05
3.45375e-05
3.48476e-05
3.50803e-05
3.52304e-05
3.52912e-05
3.52549e-05
3.51113e-05
3.48484e-05
3.44518e-05
3.3905e-05
3.319e-05
3.2288e-05
3.11801e-05
2.98496e-05
2.82834e-05
2.64751e-05
2.44276e-05
2.21571e-05
1.96961e-05
1.70966e-05
1.44309e-05
1.17899e-05
9.27594e-06
6.99117e-06
5.02123e-06
3.42446e-06
2.44259e-06
1.41929e-06
6.9253e-07
3.30672e-07
1.54801e-07
6.09823e-08
1.67605e-08
2.68607e-09
1.56254e-10
9.07282e-13
1.89081e-05
2.0356e-05
2.11373e-05
2.17943e-05
2.24049e-05
2.29817e-05
2.35758e-05
2.41804e-05
2.47811e-05
2.53636e-05
2.59154e-05
2.64262e-05
2.68879e-05
2.72944e-05
2.7641e-05
2.79241e-05
2.81403e-05
2.8286e-05
2.83569e-05
2.83474e-05
2.82504e-05
2.80571e-05
2.77571e-05
2.7338e-05
2.67865e-05
2.60882e-05
2.5229e-05
2.41958e-05
2.29782e-05
2.15702e-05
1.99725e-05
1.81948e-05
1.6259e-05
1.42011e-05
1.20735e-05
9.94424e-06
7.89434e-06
6.01045e-06
4.37454e-06
3.0433e-06
2.13877e-06
1.33941e-06
6.73306e-07
3.1923e-07
1.44211e-07
5.5308e-08
1.54378e-08
2.50143e-09
1.53528e-10
8.08341e-13
1.4474e-05
1.53532e-05
1.58729e-05
1.6351e-05
1.68195e-05
1.73058e-05
1.78203e-05
1.83479e-05
1.88731e-05
1.93819e-05
1.98628e-05
2.03067e-05
2.07071e-05
2.1059e-05
2.13593e-05
2.16056e-05
2.1796e-05
2.19283e-05
2.2e-05
2.20075e-05
2.19461e-05
2.18096e-05
2.15909e-05
2.12811e-05
2.08706e-05
2.03493e-05
1.97067e-05
1.89333e-05
1.80213e-05
1.69658e-05
1.57662e-05
1.4428e-05
1.2965e-05
1.14006e-05
9.77002e-06
8.12092e-06
6.51199e-06
5.00982e-06
3.68253e-06
2.58325e-06
1.69159e-06
9.85773e-07
5.07871e-07
2.34425e-07
9.89415e-08
3.35499e-08
7.88928e-09
1.15454e-09
5.03776e-11
2.34478e-13
1.05406e-05
1.10378e-05
1.13801e-05
1.17301e-05
1.20969e-05
1.2503e-05
1.29364e-05
1.33811e-05
1.38226e-05
1.42487e-05
1.46495e-05
1.50179e-05
1.53488e-05
1.56389e-05
1.58862e-05
1.60894e-05
1.62477e-05
1.63602e-05
1.64255e-05
1.64415e-05
1.64052e-05
1.63128e-05
1.61592e-05
1.59386e-05
1.56444e-05
1.52695e-05
1.48069e-05
1.425e-05
1.35931e-05
1.28328e-05
1.1968e-05
1.10019e-05
9.94243e-06
8.80415e-06
7.60931e-06
6.38875e-06
5.18163e-06
4.03344e-06
2.99291e-06
2.10802e-06
1.38948e-06
8.22092e-07
4.34765e-07
2.06094e-07
8.40257e-08
2.76236e-08
6.62975e-09
8.96946e-10
4.36099e-11
2.54572e-13
7.26601e-06
7.53252e-06
7.76059e-06
8.01637e-06
8.3099e-06
8.63988e-06
8.9914e-06
9.35035e-06
9.70454e-06
1.00441e-05
1.03615e-05
1.06516e-05
1.09108e-05
1.11372e-05
1.13297e-05
1.14881e-05
1.16121e-05
1.17015e-05
1.17558e-05
1.17739e-05
1.17541e-05
1.16939e-05
1.15902e-05
1.14392e-05
1.12366e-05
1.09777e-05
1.06579e-05
1.02729e-05
9.81906e-06
9.29389e-06
8.69673e-06
8.02923e-06
7.29604e-06
6.50568e-06
5.67136e-06
4.81183e-06
3.95162e-06
3.11957e-06
2.34679e-06
1.6682e-06
1.10706e-06
6.6827e-07
3.60995e-07
1.7247e-07
7.02944e-08
2.29584e-08
5.4429e-09
7.48001e-10
3.72248e-11
2.17238e-13
4.716e-06
4.85675e-06
5.01276e-06
5.20273e-06
5.43194e-06
5.68881e-06
5.96046e-06
6.2355e-06
6.50453e-06
6.7603e-06
6.99758e-06
7.2129e-06
7.40422e-06
7.57056e-06
7.71163e-06
7.82756e-06
7.9186e-06
7.98493e-06
8.02647e-06
8.04274e-06
8.03281e-06
7.99523e-06
7.9281e-06
7.82907e-06
7.69543e-06
7.52429e-06
7.31276e-06
7.05813e-06
6.7582e-06
6.41149e-06
6.01761e-06
5.57755e-06
5.09405e-06
4.57199e-06
4.01883e-06
3.44514e-06
2.86515e-06
2.2962e-06
1.75698e-06
1.26965e-06
8.55515e-07
5.26896e-07
2.90571e-07
1.40631e-07
5.77072e-08
1.89079e-08
4.47005e-09
6.16441e-10
3.07988e-11
1.79863e-13
2.86391e-06
2.94122e-06
3.05002e-06
3.19052e-06
3.36138e-06
3.55094e-06
3.74909e-06
3.94742e-06
4.13935e-06
4.32004e-06
4.48622e-06
4.6359e-06
4.76806e-06
4.88241e-06
4.97907e-06
5.05838e-06
5.12077e-06
5.16653e-06
5.1958e-06
5.20841e-06
5.20389e-06
5.18144e-06
5.13996e-06
5.07804e-06
4.99408e-06
4.88635e-06
4.75313e-06
4.59283e-06
4.4042e-06
4.18641e-06
3.93934e-06
3.66363e-06
3.36097e-06
3.03418e-06
2.68741e-06
2.32632e-06
1.95848e-06
1.59348e-06
1.24189e-06
9.16296e-07
6.31098e-07
3.98156e-07
2.24953e-07
1.10964e-07
4.61129e-08
1.52288e-08
3.60952e-09
4.98577e-10
2.49318e-11
1.45603e-13
1.61319e-06
1.65901e-06
1.73349e-06
1.83469e-06
1.95497e-06
2.0861e-06
2.22109e-06
2.35434e-06
2.48169e-06
2.60029e-06
2.70836e-06
2.80493e-06
2.88968e-06
2.96264e-06
3.02411e-06
3.07446e-06
3.11409e-06
3.14329e-06
3.16224e-06
3.1709e-06
3.16907e-06
3.15632e-06
3.13203e-06
3.09542e-06
3.04557e-06
2.98151e-06
2.90226e-06
2.80694e-06
2.69488e-06
2.56566e-06
2.41929e-06
2.25621e-06
2.07747e-06
1.8847e-06
1.68022e-06
1.46707e-06
1.24905e-06
1.03101e-06
8.18435e-07
6.17743e-07
4.36845e-07
2.83843e-07
1.65309e-07
8.37541e-08
3.55081e-08
1.18795e-08
2.83385e-09
3.92493e-10
1.96422e-11
1.14695e-13
8.32333e-07
8.61609e-07
9.11691e-07
9.79284e-07
1.05774e-06
1.14154e-06
1.22625e-06
1.30856e-06
1.38616e-06
1.4576e-06
1.52207e-06
1.57926e-06
1.62914e-06
1.67189e-06
1.70779e-06
1.73716e-06
1.76027e-06
1.77735e-06
1.78854e-06
1.79386e-06
1.79322e-06
1.7864e-06
1.77309e-06
1.75285e-06
1.72521e-06
1.68964e-06
1.64563e-06
1.59271e-06
1.53053e-06
1.45893e-06
1.37792e-06
1.28782e-06
1.18922e-06
1.08306e-06
9.70636e-07
8.53542e-07
7.33691e-07
6.13404e-07
4.95302e-07
3.82342e-07
2.78164e-07
1.87e-07
1.13096e-07
5.94464e-08
2.59819e-08
8.87719e-09
2.1422e-09
2.98173e-10
1.49432e-11
8.72441e-14
3.85823e-07
4.04873e-07
4.36621e-07
4.77945e-07
5.24524e-07
5.73079e-07
6.21158e-07
6.67063e-07
7.09723e-07
7.48543e-07
7.83264e-07
8.13845e-07
8.4038e-07
8.63037e-07
8.82016e-07
8.97516e-07
9.09715e-07
9.1875e-07
9.24708e-07
9.27614e-07
9.27432e-07
9.24061e-07
9.17342e-07
9.07067e-07
8.92995e-07
8.74864e-07
8.52422e-07
8.25445e-07
7.93769e-07
7.57316e-07
7.16123e-07
6.70363e-07
6.20366e-07
5.66627e-07
5.09811e-07
4.50744e-07
3.90372e-07
3.29778e-07
2.70156e-07
2.1278e-07
1.5911e-07
1.1088e-07
7.00799e-08
3.86603e-08
1.76796e-08
6.25326e-09
1.54034e-09
2.16361e-10
1.08719e-11
6.34708e-14
1.55969e-07
1.67696e-07
1.8606e-07
2.08592e-07
2.33089e-07
2.57914e-07
2.81935e-07
3.04452e-07
3.25082e-07
3.43653e-07
3.60132e-07
3.74562e-07
3.87031e-07
3.97647e-07
4.06523e-07
4.13765e-07
4.19465e-07
4.23693e-07
4.26494e-07
4.27884e-07
4.27849e-07
4.26346e-07
4.23303e-07
4.18628e-07
4.12212e-07
4.03939e-07
3.93695e-07
3.81382e-07
3.66928e-07
3.50303e-07
3.31529e-07
3.10694e-07
2.87955e-07
2.63546e-07
2.37779e-07
2.11037e-07
1.8376e-07
1.56431e-07
1.29571e-07
1.03709e-07
7.93937e-08
5.72222e-08
3.78764e-08
2.2148e-08
1.07948e-08
4.04025e-09
1.03358e-09
1.47781e-10
7.46427e-12
4.35851e-14
5.25722e-08
5.90952e-08
6.81744e-08
7.8654e-08
8.95933e-08
1.00335e-07
1.10482e-07
1.19823e-07
1.28272e-07
1.35811e-07
1.42459e-07
1.48256e-07
1.5325e-07
1.57495e-07
1.61039e-07
1.6393e-07
1.66205e-07
1.67895e-07
1.69018e-07
1.69582e-07
1.69582e-07
1.69001e-07
1.67811e-07
1.65977e-07
1.63456e-07
1.60204e-07
1.56174e-07
1.51331e-07
1.45646e-07
1.39109e-07
1.31729e-07
1.23544e-07
1.14618e-07
1.05044e-07
9.49476e-08
8.44826e-08
7.38254e-08
6.31692e-08
5.27184e-08
4.26786e-08
3.32493e-08
2.46232e-08
1.69903e-08
1.05578e-08
5.57496e-09
2.27679e-09
6.25006e-10
9.27905e-11
4.73989e-12
2.76995e-14
1.37603e-08
1.67332e-08
2.03177e-08
2.42029e-08
2.80807e-08
3.17648e-08
3.51648e-08
3.82475e-08
4.10081e-08
4.34557e-08
4.56053e-08
4.74749e-08
4.90831e-08
5.04483e-08
5.15877e-08
5.25168e-08
5.32484e-08
5.37921e-08
5.41544e-08
5.43377e-08
5.43405e-08
5.41576e-08
5.37802e-08
5.3197e-08
5.23944e-08
5.1358e-08
5.00738e-08
4.85299e-08
4.67177e-08
4.4634e-08
4.22824e-08
3.96746e-08
3.68315e-08
3.37838e-08
3.05716e-08
2.72443e-08
2.38593e-08
2.0479e-08
1.71696e-08
1.39978e-08
1.10276e-08
8.31746e-09
5.91807e-09
3.87205e-09
2.22093e-09
1.01888e-09
3.16814e-10
5.12015e-11
2.69276e-12
1.57802e-14
2.49785e-09
3.44805e-09
4.45663e-09
5.47812e-09
6.45048e-09
7.34618e-09
8.15768e-09
8.88562e-09
9.53356e-09
1.0106e-08
1.06077e-08
1.10435e-08
1.1418e-08
1.17359e-08
1.20011e-08
1.22173e-08
1.23876e-08
1.25143e-08
1.25989e-08
1.26419e-08
1.2643e-08
1.2601e-08
1.25138e-08
1.23788e-08
1.2193e-08
1.19528e-08
1.16551e-08
1.12971e-08
1.08769e-08
1.03937e-08
9.84835e-09
9.24367e-09
8.58454e-09
7.87812e-09
7.13377e-09
6.36302e-09
5.57922e-09
4.79702e-09
4.03192e-09
3.29961e-09
2.61522e-09
1.99257e-09
1.44337e-09
9.76324e-10
5.96758e-10
3.07797e-10
1.14763e-10
2.23343e-11
1.28364e-12
7.6071e-15
2.58424e-10
4.26009e-10
5.87246e-10
7.39369e-10
8.78111e-10
1.00312e-09
1.11518e-09
1.21518e-09
1.30395e-09
1.38227e-09
1.45085e-09
1.51039e-09
1.56155e-09
1.60495e-09
1.64116e-09
1.67069e-09
1.69395e-09
1.71127e-09
1.72283e-09
1.72874e-09
1.72893e-09
1.72323e-09
1.71137e-09
1.69299e-09
1.66765e-09
1.63489e-09
1.59427e-09
1.54542e-09
1.48805e-09
1.42209e-09
1.34763e-09
1.26507e-09
1.17508e-09
1.07865e-09
9.77043e-10
8.71852e-10
7.649e-10
6.582e-10
5.53871e-10
4.54067e-10
3.60872e-10
2.76196e-10
2.01672e-10
1.38533e-10
8.74967e-11
4.86671e-11
2.15675e-11
5.73907e-12
4.37048e-13
2.74641e-15
1.00494e-11
2.00267e-11