/*--------------------------------*- C++ -*----------------------------------*\
| =========                 |                                                 |
| \\      /  F ield         | foam-extend: Open Source CFD                    |
|  \\    /   O peration     | Version:     4.0                                |
|   \\  /    A nd           | Web:         http://www.foam-extend.org         |
|    \\/     M anipulation  |                                                 |
\*---------------------------------------------------------------------------*/
FoamFile
{
    version     2.0;
    format      ascii;
    class       volScalarField;
    location    "0.0008";
    object      omega;
}
// * * * * * * * * * * * * * * * * * * * * * * * * * * * * * * * * * * * * * //

dimensions      [0 0 -1 0 0 0 0];

internalField   nonuniform List<scalar> 
28770
(
1.87595e+07
1.87595e+07
1.87595e+07
1.87595e+07
1.87595e+07
1.87595e+07
1.87595e+07
1.87595e+07
1.87595e+07
1.87595e+07
1.87595e+07
1.87595e+07
1.87595e+07
1.87595e+07
1.87595e+07
1.87595e+07
1.87595e+07
1.87595e+07
1.87595e+07
1.87595e+07
1.87595e+07
1.87595e+07
1.87595e+07
1.87595e+07
1.87595e+07
1.87595e+07
1.87595e+07
1.87595e+07
1.87595e+07
1.87595e+07
1.87595e+07
1.87595e+07
1.87595e+07
1.87595e+07
1.87595e+07
1.87595e+07
1.87595e+07
1.87595e+07
1.87595e+07
1.87595e+07
1.87595e+07
1.87595e+07
1.87595e+07
1.87595e+07
1.87595e+07
1.87595e+07
1.87595e+07
1.87595e+07
1.87595e+07
1.87595e+07
2.70013e+06
3.18574e+06
3.23008e+06
3.23475e+06
3.23538e+06
3.23549e+06
3.23552e+06
3.23553e+06
3.23554e+06
3.23554e+06
3.23554e+06
3.23554e+06
3.23554e+06
3.23554e+06
3.23554e+06
3.23554e+06
3.23554e+06
3.23554e+06
3.23554e+06
3.23554e+06
3.23554e+06
3.23554e+06
3.23554e+06
3.23554e+06
3.23554e+06
3.23555e+06
3.23555e+06
3.23555e+06
3.23555e+06
3.23555e+06
3.23555e+06
3.23555e+06
3.23555e+06
3.23555e+06
3.23556e+06
3.23556e+06
3.23556e+06
3.23556e+06
3.23557e+06
3.23558e+06
3.23559e+06
3.23562e+06
3.23568e+06
3.23586e+06
3.23644e+06
3.23892e+06
3.25306e+06
3.36212e+06
4.43128e+06
1.79872e+07
679425
1.01713e+06
1.08474e+06
1.09848e+06
1.10156e+06
1.10235e+06
1.10259e+06
1.10267e+06
1.1027e+06
1.10272e+06
1.10272e+06
1.10273e+06
1.10273e+06
1.10273e+06
1.10273e+06
1.10273e+06
1.10273e+06
1.10273e+06
1.10273e+06
1.10273e+06
1.10273e+06
1.10273e+06
1.10273e+06
1.10273e+06
1.10273e+06
1.10273e+06
1.10273e+06
1.10274e+06
1.10274e+06
1.10274e+06
1.10274e+06
1.10274e+06
1.10274e+06
1.10274e+06
1.10275e+06
1.10276e+06
1.10277e+06
1.10278e+06
1.10281e+06
1.10287e+06
1.10298e+06
1.10322e+06
1.10379e+06
1.10531e+06
1.1099e+06
1.12603e+06
1.19192e+06
1.50335e+06
3.24976e+06
1.79872e+07
228620
431011
496277
516082
522234
524269
524999
525286
525409
525465
525493
525508
525516
525521
525524
525526
525527
525528
525529
525529
525530
525530
525531
525531
525532
525533
525534
525535
525537
525539
525543
525548
525555
525566
525582
525608
525650
525720
525845
526075
526526
527464
529565
534664
548178
587436
712735
1.16002e+06
3.12319e+06
1.79872e+07
96119.8
214080
266522
287535
295785
299091
300472
301080
301363
301503
301575
301615
301637
301650
301658
301663
301667
301669
301671
301672
301673
301674
301675
301677
301678
301680
301682
301686
301691
301697
301707
301720
301740
301770
301816
301888
302004
302198
302534
303140
304279
306533
311242
321670
346212
407822
574732
1.08478e+06
3.10622e+06
1.79872e+07
47924.3
118611
157771
176987
185992
190187
192174
193142
193631
193887
194028
194107
194153
194182
194199
194210
194218
194223
194227
194229
194232
194234
194236
194239
194242
194246
194251
194259
194269
194283
194304
194334
194378
194443
194544
194699
194947
195354
196039
197232
199387
203432
211342
227492
262030
340008
530310
1.06585e+06
3.1032e+06
1.79872e+07
27101.8
71383.1
99993.6
116302
125068
129675
132096
133384
134085
134475
134699
134831
134911
134961
134993
135013
135027
135037
135044
135049
135053
135057
135061
135066
135072
135079
135090
135103
135123
135150
135189
135245
135327
135449
135632
135913
136353
137058
138214
140161
143536
149563
160677
181888
224029
312397
514672
1.06036e+06
3.10248e+06
1.79872e+07
16801.2
45878.9
66814.7
80160.2
88147
92777.7
95432
96956.2
97840.6
98362
98675.3
98867.4
98987.7
99064.6
99114.8
99148.2
99170.9
99186.9
99198.4
99207.3
99214.6
99221.4
99228.3
99236.2
99246
99258.7
99275.8
99299.2
99331.8
99377.6
99442.6
99535.8
99670.8
99868.9
100164
100609
101292
102362
104069
106853
111498
119434
133358
158542
205920
300434
508667
1.05852e+06
3.10227e+06
1.79872e+07
11167
31158.5
46630.9
57378.9
64384.4
68786
71500.9
73165.7
74189.1
74823.7
75222
75475.5
75639.5
75747.2
75819.2
75868
75901.9
75925.9
75943.6
75957.2
75968.6
75979.1
75989.9
76002.2
76017.3
76037
76063.5
76099.6
76149.7
76219.8
76318.6
76459.2
76661.1
76953.9
77383.4
78021.8
78983.7
80455.5
82744.1
86365.4
92203.5
101810
117992
146073
196866
294920
506146
1.05782e+06
3.10219e+06
1.79872e+07
7839.85
22134.9
33763.6
42396.6
48419
52460.7
55112.5
56833.2
57946.4
58668.7
59140.5
59451.6
59659
59798.9
59894.5
59960.8
60007.5
60041.1
60066.1
60085.7
60102.1
60117.3
60133
60150.8
60172.8
60201.3
60239.4
60291.3
60363
60462.6
60602.1
60798.9
61078.7
61479.7
62060
62908.4
64163.4
66043
68896.2
73290.9
80169.9
91138.3
109031
139127
192089
292180
504967
1.05751e+06
3.10215e+06
1.79872e+07
5760.7
16338.9
25237.4
32212.4
37345.7
40981.3
43494
45205.9
46364.1
47146.7
47676.9
48038
48285.8
48457.2
48576.9
48661.5
48722.2
48766.5
48799.9
48826.3
48848.6
48869.4
48890.9
48915.4
48945.5
48984.4
49036.3
49106.6
49203.1
49336.5
49521.9
49781.2
50146
50662.8
51400.5
52462.5
54005.8
56272.2
59638.6
64703.2
72435.7
84454.4
103579
135026
189338
290615
504273
1.0573e+06
3.10213e+06
1.79872e+07
4407.52
12484.2
19447.4
25115.1
29478.3
32710.9
35045.8
36704.8
37872.3
38690.2
39262.8
39664.5
39947.5
40148
40291
40393.9
40468.9
40524.5
40566.9
40600.8
40629.8
40657
40685.1
40717.2
40756.5
40807.1
40874.3
40965
41088.8
41258.7
41493.2
41818.3
42271
42904.9
43798
45064.8
46876.1
49488.7
53295.5
58908.1
67301
80081.9
100038
132331
187429
289365
503536
1.05696e+06
3.10205e+06
1.79872e+07
3500.43
9848.48
15412.2
20063.1
23783
26644.1
28789
30369.2
31519.9
32352.3
32952.5
33385
33697.2
33923.2
34087.6
34208
34297.1
34364.1
34415.9
34457.8
34493.9
34527.9
34563.2
34603.5
34652.8
34716.1
34799.7
34912
35064.3
35272
35556.6
35947.6
36486.9
37233.7
38272.9
39726.8
41774.6
44681.1
48845.3
54879.8
63750.2
77033.5
97476.5
130183
185563
287641
501920
1.05568e+06
3.1015e+06
1.79872e+07
2879.7
8008.8
12549.6
16411.4
19601.1
22135.1
24094.7
25583.6
26700.7
27531.8
28147
28601.2
28936.3
29183.7
29367
29503.4
29605.9
29684
29745.1
29794.9
29838.3
29879.5
29922.4
29971.3
30031
30107.4
30207.8
30342
30523
30768.3
31101.8
31556.4
32177.4
33028.6
34199.3
35816.6
38063.4
41206.3
45642.5
51977.9
61164.1
74712.8
95316.9
127983
182987
284208
497133
1.04963e+06
3.09628e+06
1.79872e+07
2448.95
6705.12
10491.1
13754.1
16502.9
18753.1
20540.8
21935.5
23009.2
23828.1
24448.4
24916.3
25268.4
25533.1
25732.5
25883.1
25997.7
26086.1
26156.2
26213.9
26264.6
26312.9
26363.5
26421.1
26491.3
26580.7
26697.8
26853.5
27062.4
27343.6
27723.3
28236.8
28932.3
29876.4
31161.1
32915.5
35322.2
38644.5
43269.8
49790.1
59177.2
72769.4
93220.2
125329
178950
277031
482971
1.02053e+06
3.04091e+06
1.79872e+07
2147.5
5771.56
8997.05
11802
14192.2
16200
17834.5
19138.5
20165
20964.6
21582.7
22058
22421.9
22700
22912.5
23075.3
23200.7
23298.6
23376.9
23442.1
23499.8
23555.1
23613.2
23679.3
23759.7
23861.8
23994.9
24171.1
24406.1
24720.6
25142.5
25708.9
26470.1
27494.2
28874.5
30739.9
33270.5
36721.3
41458.7
48014.9
54634.7
67644.5
85847.4
113856
159364
239357
397249
770895
2.00892e+06
1.20425e+07
1935.7
5098.52
7906.24
10361.7
12469.8
14267.6
15768
16988.3
17967.2
18744
19355.2
19832.9
20204.4
20492.4
20715.4
20888.2
21022.8
21129.1
21214.9
21287
21351.3
21413.3
21478.4
21552.6
21642.7
21756.7
21904.7
22099.8
22358.6
22703.1
23162.4
23775
24592.3
25683.3
27141.6
29094.6
31719.2
35263.4
40084
46709.9
53364.3
66155.1
84045.4
111328
155289
232035
383260
747054
2.01434e+06
1.24057e+07
1786.84
4611.33
7106.76
9295.12
11185.4
12806.3
14188.8
15334.6
16268.5
17021.4
17622.7
18099.4
18475.2
18770.2
19001.2
19182.2
19324.7
19438.1
19530.5
19608.8
19679.1
19747.2
19818.9
19900.6
19999.6
20124.5
20286.1
20498
20778
21148.8
21640.4
22292.2
23156.2
24301.8
25821.7
27841.9
30535.2
34143.4
39013.2
45657.4
52322.2
64884.4
82467.8
109118
151870
226472
373646
730689
1.9889e+06
1.23852e+07
1682.5
4258.21
6520.2
8505.42
10228.3
11708.5
12984.6
14065.7
14958.8
15688.3
16278.5
16752.1
17129.8
17429.4
17666.4
17853.9
18002.7
18122.2
18220.3
18304
18379.6
18453.2
18530.9
18619.4
18726.3
18860.9
19034.4
19261.2
19559.4
19952.6
20471.4
21155.6
22057.6
23246.3
24813.8
26883.6
29625
33273.4
38165.8
44800
51451.8
63797.6
81092.6
107174
148730
233701
388332
766451
2.121e+06
1.69429e+07
1609.83
4002.69
6090.57
7922.03
9515.92
10890.1
12075
13097
13954.5
14662.6
15241.6
15711
16088.9
16391.5
16632.8
16825.2
16979.1
17103.6
17206.5
17294.9
17375.1
17453.4
17536.3
17630.7
17744.7
17887.7
18071.5
18310.8
18624.4
19036.3
19577.3
20287.7
21219.6
22441.6
24044.5
26149.6
28922.3
32592.4
37488
44093.5
50714.8
62858.3
79888.6
105492
146190
229252
379614
745910
2.07428e+06
1.69163e+07
1559.73
3818.88
5777.81
7493.97
8989.93
10283.9
11398.2
12365.5
13192.4
13881.7
14450.3
14915.2
15292.4
15596.7
15841.1
16037.2
16195.1
16323.6
16430.4
16522.6
16606.7
16689.1
16776.4
16875.9
16995.7
17145.8
17338.1
17587.9
17914.1
18341
18899.8
19630.7
20585.6
21832.5
23460.7
25589.6
28380.7
32058.5
36943
43506.3
50083
62031.8
78808.5
103989
143992
225712
374067
737881
2.06703e+06
1.69157e+07
1525.74
3688.39
5553.19
7184.34
8607.32
9840.93
10904.6
11825.6
12624
13298
13857.7
14318.4
14694.5
14999.6
15246.1
15445
15605.9
15737.5
15847.4
15942.7
16030
16115.7
16206.6
16310.2
16434.8
16590.6
16789.9
17048
17384.1
17822.8
18395.3
19141.7
20113.7
21378.5
23024.2
25167.9
27968
31643.7
36507.1
43018.7
49541
61289.6
77796.3
102524
141773
221866
367392
723978
2.02468e+06
1.67947e+07
1503.31
3598.25
5396.35
6966.77
8337.2
9527.03
10554.7
11442.1
12214.8
12876.3
13428.9
13886
14260.9
14566.5
14814.4
15015.2
15178.3
15312.2
15424.5
15522.1
15611.8
15700.1
15793.8
15900.6
16029
16189.2
16393.8
16658.2
17001.8
17449.3
18031.9
18789.6
19773.7
21050.7
22707.7
24859.9
27662.5
31330.3
36167.9
42623.5
49089.8
60622.6
76824.7
101002
139231
216737
357059
696917
2.07572e+06
1.19264e+07
1489.35
3539.54
5293.21
6822.93
8157.91
9318.04
10321.4
11187.2
11939.7
12590.4
13138.4
13592.9
13967
14272.7
14521.5
14723.6
14888.2
15023.7
15137.6
15236.9
15328.3
15418.4
15514.2
15623.2
15754.2
15917.6
16125.9
16394.8
16743.6
17197.2
17786.7
18551.9
19544
20828.9
22492.7
24649.1
27450.9
31108.9
35921.3
42325.1
48747.1
60053.7
75932.3
99467.6
136353
209997
341583
659058
1.98853e+06
1.18234e+07
1481.79
3506.16
5233.97
6739.89
8054.06
9196.72
10185.8
11039.5
11779.3
12422
12967.3
13420.4
13793.9
14099.7
14349
14551.8
14717.3
14853.7
14968.6
15068.9
15161.4
15252.6
15349.6
15460
15592.7
15758
15968.5
16240
16592
17049.2
17642.7
18412.4
19409.1
20698.5
22365.8
24523.9
27324.1
30974.1
35767.8
42133.8
48538.3
59635.3
75232.4
98161.7
133630
202743
320728
584484
1.29218e+06
5.51178e+06
1479.83
3495.85
5215.13
6713.12
8020.35
9157.19
10141.5
10991.4
11726.8
12366.3
12910.7
13363.5
13736.8
14042.6
14292.1
14495.1
14660.9
14797.6
14912.9
15013.5
15106.3
15197.9
15295.3
15406.2
15539.4
15705.3
15916.7
16189
16542.1
17000.4
17595.3
18366.4
19364.6
20655.3
22323.8
24482.3
27281.7
30928.7
35715.4
42067.3
48495.1
59435.4
74884.1
97476.6
132096
198750
307329
524681
967083
1.97698e+06
1483.22
3507.86
5235.51
6741.14
8055.03
9197.45
10186.3
11039.9
11779.6
12422.3
12967.5
13420.6
13794.1
14099.9
14349.1
14551.9
14717.4
14853.9
14968.8
15069.1
15161.5
15252.8
15349.8
15460.2
15592.8
15758.1
15968.7
16240.1
16592.1
17049.3
17642.8
18412.4
19409.1
20698.4
22365.7
24523.8
27323.9
30974
35767.6
42133.4
48624.8
59502.5
75002.1
97711.5
132631
201237
315832
563502
1.23028e+06
4.58304e+06
1492.2
3542.9
5296.24
6825.4
8159.81
9319.46
10322.4
11188
11940.3
12590.9
13138.8
13593.3
13967.3
14273
14521.8
14723.8
14888.4
15023.9
15137.8
15237.2
15328.5
15418.7
15514.4
15623.5
15754.5
15917.9
16126.1
16394.9
16743.8
17197.3
17786.7
18551.9
19543.9
20828.8
22492.5
24648.8
27450.6
31108.5
35920.8
42324.4
48904.7
59820.4
75546.6
98759.6
134910
208115
336627
643980
1.63976e+06
1.1725e+07
1507.58
3603.24
5400.83
6970.4
8339.98
9529.08
10556.2
11443.2
12215.7
12877
13429.5
13886.5
14261.4
14567
14814.8
15015.6
15178.7
15312.6
15424.9
15522.5
15612.2
15700.5
15794.2
15901
16029.4
16189.6
16394.1
16658.4
17002
17449.4
18031.9
18789.5
19773.5
21050.5
22707.4
24859.5
27662.1
31329.8
36167.2
42622.5
49304.9
60320.6
76358.5
100217
137801
215162
353686
689268
1.74805e+06
1.19227e+07
1531.38
3694.98
5559.08
7189.08
8610.92
9843.55
10906.4
11827
12625.1
13298.9
13858.5
14319.1
14695.1
15000.2
15246.7
15445.5
15606.4
15738
15847.9
15943.2
16030.4
16116.2
16207.1
16310.6
16435.3
16591.1
16790.3
17048.3
17384.4
17823
18395.3
19141.6
20113.5
21378.1
23023.7
25167.4
27967.4
31643
36506.4
43017.7
49802.6
60943.4
77300.1
101763
140535
220692
365078
717540
1.99259e+06
1.63359e+07
1566.7
3827.02
5785.05
7499.76
8994.28
10287
11400.3
12367.1
13193.7
13882.8
14451.2
14916
15293.1
15597.3
15841.7
16037.8
16195.7
16324.1
16431
16523.1
16607.2
16689.6
16777
16876.4
16996.2
17146.2
17338.5
17588.2
17914.3
18341.1
18899.8
19630.5
20585.3
21832
23460.2
25588.9
28380.1
32057.8
36942.2
43505.3
50388.4
61648.9
78292.5
103252
142894
224801
372596
735363
2.06312e+06
1.69145e+07
1618.06
4012.29
6099.07
7928.75
9520.89
10893.6
12077.5
13098.9
13956
14663.8
15242.6
15711.9
16089.7
16392.2
16633.5
16825.9
16979.8
17104.3
17207.2
17295.5
17375.7
17454.1
17536.9
17631.3
17745.2
17888.2
18071.9
18311.1
18624.6
19036.3
19577.2
20287.4
21219.2
22441.1
24043.8
26148.9
28921.6
32591.6
37487.2
44092.7
51070
62431
79333.4
104721
145061
228312
378076
743548
2.07217e+06
1.69162e+07
1691.88
4269.12
6529.76
8512.89
10233.7
11712.2
12987.3
14067.7
14960.4
15689.6
16279.6
16753.1
17130.7
17430.2
17667.2
17854.6
18003.4
18122.9
18221
18304.7
18380.3
18453.8
18531.5
18620
18726.9
18861.4
19034.8
19261.5
19559.6
19952.6
20471.2
21155.3
22057.1
23245.7
24813
26882.8
29624.1
33272.6
38165.1
44799.3
51869.6
63310.3
80469.3
106299
147391
232451
385654
758817
2.09678e+06
1.69198e+07
1797.2
4623.32
7117.14
9303.05
11191
12810.1
14191.6
15336.8
16270.2
17022.8
17623.9
18100.5
18476.2
18771.1
19002
19182.9
19325.4
19438.8
19531.2
19609.5
19679.8
19747.8
19819.5
19901.3
20000.2
20125
20286.5
20498.3
20778.1
21148.8
21640.2
22291.8
23155.7
24301
25820.9
27841
30534.3
34142.6
39012.5
45656.8
52820.1
64319.4
81755.4
108113
150280
223949
368290
716131
1.93333e+06
1.21638e+07
1946.82
5111.25
7917.06
10369.8
12475.2
14271.3
15770.8
16990.4
17968.9
18745.4
19356.3
19833.9
20205.3
20493.2
20716.1
20888.9
21023.5
21129.8
21215.6
21287.6
21351.9
21413.9
21479
21553.2
21643.2
21757.1
21905.1
22100
22358.7
22703.1
23162.2
23774.6
24591.7
25682.6
27140.7
29093.7
31718.2
35262.5
40083.3
46709.4
53967.1
65493.8
83228.7
110185
153518
229134
378431
739976
2.00776e+06
1.24058e+07
2159.08
5784.61
9007.85
11809.7
14197.3
16203.6
17837.1
19140.5
20166.5
20965.8
21583.8
22058.9
22422.7
22700.8
22913.2
23075.9
23201.3
23299.2
23377.5
23442.7
23500.4
23555.7
23613.7
23679.8
23760.1
23862.2
23995.2
24171.3
24406.1
24720.5
25142.3
25708.5
26469.5
27493.4
28873.6
30738.9
33269.6
36720.4
41458
48014.4
55397.9
66871
84918.5
112552
157231
235385
389162
755754
2.01698e+06
1.23779e+07
2460.64
6717.98
10501.4
13761.1
16507.4
18756.3
20543
21937.2
23010.6
23829.1
24449.3
24917
25269.1
25533.8
25733.1
25883.6
25998.2
26086.7
26156.6
26214.4
26265.1
26313.4
26363.9
26421.5
26491.6
26581
26698
26853.7
27062.4
27343.5
27723.1
28236.4
28931.7
29875.6
31160.2
32914.5
35321.3
38643.7
43269.1
49789.7
59176.9
72769.2
93220
125329
178950
277031
482971
1.02053e+06
3.04091e+06
1.79872e+07
2891.12
8020.94
12558.8
16417.4
19604.9
22137.7
24096.6
25585
26701.7
27532.6
28147.7
28601.8
28936.8
29184.2
29367.5
29503.9
29606.3
29684.4
29745.4
29795.3
29838.7
29879.8
29922.7
29971.6
30031.3
30107.6
30208
30342.1
30523
30768.2
31101.6
31556
32176.9
33027.9
34198.5
35815.8
38062.5
41205.5
45641.9
51977.5
61163.8
74712.7
95316.8
127983
182987
284208
497133
1.04963e+06
3.09628e+06
1.79872e+07
3511.18
9859.41
15420
20067.8
23786.1
26646.1
28790.4
30370.1
31520.6
32352.9
32953
33385.4
33697.6
33923.6
34087.9
34208.3
34297.4
34364.4
34416.2
34458
34494.1
34528.1
34563.4
34603.7
34653
34716.2
34799.8
34912
35064.3
35271.9
35556.3
35947.3
36486.4
37233.2
38272.2
39726.1
41773.8
44680.4
48844.7
54879.3
63749.9
77033.4
97476.5
130183
185563
287641
501920
1.05568e+06
3.1015e+06
1.79872e+07
4417.21
12493.5
19453.5
25118.7
29480.5
32712.2
35046.7
36705.4
37872.7
38690.5
39263
39664.7
39947.7
40148.1
40291.1
40394
40469
40524.6
40567.1
40601
40629.9
40657.1
40685.2
40717.3
40756.6
40807.2
40874.3
40965
41088.8
41258.6
41493.1
41818
42270.7
42904.5
43797.5
45064.3
46875.4
49488.1
53295
58907.6
67300.7
80081.7
100038
132331
187429
289365
503536
1.05696e+06
3.10205e+06
1.79872e+07
5768.99
16346.2
25241.7
32214.8
37347.1
40982
43494.4
45206
46364.2
47146.8
47676.9
48038.1
48285.8
48457.2
48576.9
48661.5
48722.2
48766.5
48799.9
48826.3
48848.6
48869.4
48890.9
48915.4
48945.5
48984.4
49036.3
49106.6
49203.1
49336.4
49521.8
49781
50145.8
50662.6
51400.2
52462.1
54005.4
56271.7
59638.1
64702.9
72435.4
84454.2
103578
135026
189338
290616
504273
1.0573e+06
3.10213e+06
1.79872e+07
7846.45
22139.8
33765.9
42397.8
48419.5
52460.9
55112.5
56833.1
57946.2
58668.5
59140.3
59451.4
59658.9
59798.8
59894.4
59960.7
60007.4
60041.1
60066.1
60085.6
60102
60117.2
60132.9
60150.8
60172.7
60201.2
60239.4
60291.3
60362.9
60462.5
60602
60798.8
61078.6
61479.6
62059.8
62908.2
64163.2
66042.7
68895.9
73290.6
80169.6
91138.1
109031
139127
192089
292180
504967
1.05751e+06
3.10215e+06
1.79872e+07
11171.7
31160.9
46631.6
57379
64384.2
68785.7
71500.6
73165.3
74188.8
74823.4
75221.7
75475.3
75639.3
75747
75819
75867.9
75901.8
75925.8
75943.5
75957.1
75968.5
75979
75989.8
76002.1
76017.2
76037
76063.4
76099.6
76149.7
76219.8
76318.6
76459.2
76661.1
76953.9
77383.4
78021.7
78983.6
80455.3
82743.9
86365.2
92203.3
101809
117992
146073
196866
294920
506146
1.05782e+06
3.10219e+06
1.79872e+07
16803.7
45877.8
66813.5
80159.4
88146.4
92777.1
95431.5
96955.7
97840.2
98361.7
98675
98867.1
98987.4
99064.4
99114.6
99148
99170.8
99186.7
99198.3
99207.2
99214.5
99221.3
99228.2
99236.1
99245.9
99258.6
99275.7
99299.2
99331.8
99377.6
99442.7
99535.8
99670.9
99869
100164
100609
101292
102362
104069
106853
111497
119434
133358
158542
205920
300434
508667
1.05852e+06
3.10227e+06
1.79872e+07
27101.9
71375
99990.5
116300
125067
129675
132096
133384
134084
134475
134699
134831
134911
134961
134992
135013
135027
135037
135044
135049
135053
135057
135061
135066
135072
135079
135090
135103
135123
135150
135189
135245
135327
135449
135632
135913
136353
137058
138214
140161
143536
149563
160677
181888
224029
312397
514672
1.06036e+06
3.10248e+06
1.79872e+07
47924.5
118608
157769
176985
185992
190187
192173
193141
193630
193887
194027
194107
194153
194181
194199
194210
194218
194223
194227
194229
194232
194234
194236
194239
194242
194246
194251
194259
194269
194283
194304
194334
194378
194444
194544
194699
194947
195354
196039
197232
199387
203432
211342
227492
262030
340008
530310
1.06585e+06
3.1032e+06
1.79872e+07
96120
214079
266521
287535
295785
299090
300471
301080
301363
301503
301575
301614
301637
301650
301658
301663
301667
301669
301671
301672
301673
301674
301675
301676
301678
301680
301682
301686
301691
301697
301707
301720
301740
301770
301816
301888
302004
302198
302535
303140
304279
306533
311242
321670
346212
407822
574732
1.08478e+06
3.10622e+06
1.79872e+07
228620
431011
496277
516082
522234
524268
524999
525286
525409
525465
525493
525508
525516
525521
525524
525526
525527
525528
525529
525529
525530
525530
525530
525531
525532
525533
525534
525535
525537
525539
525543
525548
525555
525566
525582
525608
525650
525720
525845
526075
526526
527464
529565
534664
548178
587436
712735
1.16002e+06
3.12319e+06
1.79872e+07
679425
1.01713e+06
1.08474e+06
1.09848e+06
1.10156e+06
1.10235e+06
1.10259e+06
1.10267e+06
1.1027e+06
1.10272e+06
1.10272e+06
1.10273e+06
1.10273e+06
1.10273e+06
1.10273e+06
1.10273e+06
1.10273e+06
1.10273e+06
1.10273e+06
1.10273e+06
1.10273e+06
1.10273e+06
1.10273e+06
1.10273e+06
1.10273e+06
1.10273e+06
1.10273e+06
1.10274e+06
1.10274e+06
1.10274e+06
1.10274e+06
1.10274e+06
1.10274e+06
1.10274e+06
1.10275e+06
1.10276e+06
1.10277e+06
1.10278e+06
1.10281e+06
1.10287e+06
1.10298e+06
1.10322e+06
1.10379e+06
1.10531e+06
1.1099e+06
1.12603e+06
1.19192e+06
1.50335e+06
3.24976e+06
1.79872e+07
2.70013e+06
3.18574e+06
3.23008e+06
3.23475e+06
3.23538e+06
3.23549e+06
3.23552e+06
3.23553e+06
3.23554e+06
3.23554e+06
3.23554e+06
3.23554e+06
3.23554e+06
3.23554e+06
3.23554e+06
3.23554e+06
3.23554e+06
3.23554e+06
3.23554e+06
3.23554e+06
3.23554e+06
3.23554e+06
3.23554e+06
3.23554e+06
3.23554e+06
3.23555e+06
3.23555e+06
3.23555e+06
3.23555e+06
3.23555e+06
3.23555e+06
3.23555e+06
3.23555e+06
3.23555e+06
3.23556e+06
3.23556e+06
3.23556e+06
3.23556e+06
3.23557e+06
3.23558e+06
3.23559e+06
3.23562e+06
3.23568e+06
3.23586e+06
3.23644e+06
3.23892e+06
3.25306e+06
3.36212e+06
4.43128e+06
1.79872e+07
1.87595e+07
1.87595e+07
1.87595e+07
1.87595e+07
1.87595e+07
1.87595e+07
1.87595e+07
1.87595e+07
1.87595e+07
1.87595e+07
1.87595e+07
1.87595e+07
1.87595e+07
1.87595e+07
1.87595e+07
1.87595e+07
1.87595e+07
1.87595e+07
1.87595e+07
1.87595e+07
1.87595e+07
1.87595e+07
1.87595e+07
1.87595e+07
1.87595e+07
1.87595e+07
1.87595e+07
1.87595e+07
1.87595e+07
1.87595e+07
1.87595e+07
1.87595e+07
1.87595e+07
1.87595e+07
1.87595e+07
1.87595e+07
1.87595e+07
1.87595e+07
1.87595e+07
1.87595e+07
1.87595e+07
1.87595e+07
1.87595e+07
1.87595e+07
1.87595e+07
1.87595e+07
1.87595e+07
1.87595e+07
1.87595e+07
1.87595e+07
6.63761e+07
6.75268e+07
6.70973e+07
6.7962e+07
6.74831e+07
6.76651e+07
6.67065e+07
6.72325e+07
6.78234e+07
6.7633e+07
6.76648e+07
6.76542e+07
6.77896e+07
6.59551e+07
6.75643e+07
6.76935e+07
6.76661e+07
6.7666e+07
6.7666e+07
6.7664e+07
3.08892e+06
3.28054e+06
3.2752e+06
3.26839e+06
3.25925e+06
3.25709e+06
3.26268e+06
3.3138e+06
3.31032e+06
3.32462e+06
3.32323e+06
3.32241e+06
3.31714e+06
3.32152e+06
3.31701e+06
3.32677e+06
3.32167e+06
3.32447e+06
3.32231e+06
3.25288e+06
1.13611e+07
1.18945e+07
1.18746e+07
1.17487e+07
1.20179e+07
1.20049e+07
1.19993e+07
1.21435e+07
1.19631e+07
1.19528e+07
1.19508e+07
1.19285e+07
1.19259e+07
1.18682e+07
1.19368e+07
1.2271e+07
1.19537e+07
1.19517e+07
1.19513e+07
1.19095e+07
1.87595e+07
1.87595e+07
1.87595e+07
1.87595e+07
1.87595e+07
1.87595e+07
1.87595e+07
1.87595e+07
1.87595e+07
1.87595e+07
1.87595e+07
1.87595e+07
1.87595e+07
1.87595e+07
1.87595e+07
1.87595e+07
1.87595e+07
1.87595e+07
1.87595e+07
1.87595e+07
1.87595e+07
1.87595e+07
1.87595e+07
1.87595e+07
1.87595e+07
1.87595e+07
1.87595e+07
1.87595e+07
1.87595e+07
1.87595e+07
1.87595e+07
1.87595e+07
1.87595e+07
1.87595e+07
1.87595e+07
1.87595e+07
1.87595e+07
1.87595e+07
1.87595e+07
1.87595e+07
1.87595e+07
1.87595e+07
1.87595e+07
1.87595e+07
1.87595e+07
1.87595e+07
1.87595e+07
1.87595e+07
1.87595e+07
1.87595e+07
1.87595e+07
1.87595e+07
1.87595e+07
1.87595e+07
1.87595e+07
1.87595e+07
1.87595e+07
1.87595e+07
1.87595e+07
1.87595e+07
1.87595e+07
1.87595e+07
1.87595e+07
1.87595e+07
1.87595e+07
1.87595e+07
1.87595e+07
1.87595e+07
1.87595e+07
1.87595e+07
1.87595e+07
1.87595e+07
1.87595e+07
1.87595e+07
1.87595e+07
1.87595e+07
1.87595e+07
1.87595e+07
1.87595e+07
1.87595e+07
1.87595e+07
1.87595e+07
1.87595e+07
1.87595e+07
1.87595e+07
1.87595e+07
1.87595e+07
1.87595e+07
1.87595e+07
1.87595e+07
1.87595e+07
1.87595e+07
1.87595e+07
1.87595e+07
1.87595e+07
1.87595e+07
1.87595e+07
1.87595e+07
1.87595e+07
1.87595e+07
1.79872e+07
4.43128e+06
3.36208e+06
3.25302e+06
3.23888e+06
3.2364e+06
3.23582e+06
3.23564e+06
3.23558e+06
3.23556e+06
3.23554e+06
3.23554e+06
3.23554e+06
3.23554e+06
3.23554e+06
3.23554e+06
3.23554e+06
3.23554e+06
3.23554e+06
3.23554e+06
3.23554e+06
3.23554e+06
3.23554e+06
3.23554e+06
3.23554e+06
3.23554e+06
3.23554e+06
3.23554e+06
3.23554e+06
3.23554e+06
3.23554e+06
3.23554e+06
3.23554e+06
3.23554e+06
3.23554e+06
3.23554e+06
3.23554e+06
3.23554e+06
3.23554e+06
3.23554e+06
3.23554e+06
3.23554e+06
3.23554e+06
3.23554e+06
3.23554e+06
3.23554e+06
3.23554e+06
3.23554e+06
3.23554e+06
3.23554e+06
3.23554e+06
3.23554e+06
3.23554e+06
3.23554e+06
3.23554e+06
3.23554e+06
3.23554e+06
3.23554e+06
3.23554e+06
3.23554e+06
3.23554e+06
3.23554e+06
3.23554e+06
3.23554e+06
3.23554e+06
3.23554e+06
3.23554e+06
3.23554e+06
3.23554e+06
3.23554e+06
3.23554e+06
3.23554e+06
3.23554e+06
3.23554e+06
3.23554e+06
3.23554e+06
3.23554e+06
3.23554e+06
3.23554e+06
3.23554e+06
3.23554e+06
3.23554e+06
3.23554e+06
3.23554e+06
3.23554e+06
3.23554e+06
3.23554e+06
3.23554e+06
3.23554e+06
3.23554e+06
3.23554e+06
3.23554e+06
3.23554e+06
3.23554e+06
3.23554e+06
3.23554e+06
3.23554e+06
3.23554e+06
3.23554e+06
3.23554e+06
1.79872e+07
3.2498e+06
1.50335e+06
1.1919e+06
1.12601e+06
1.10988e+06
1.10528e+06
1.10377e+06
1.1032e+06
1.10296e+06
1.10285e+06
1.10279e+06
1.10277e+06
1.10275e+06
1.10274e+06
1.10274e+06
1.10273e+06
1.10273e+06
1.10273e+06
1.10273e+06
1.10273e+06
1.10273e+06
1.10273e+06
1.10273e+06
1.10273e+06
1.10273e+06
1.10273e+06
1.10273e+06
1.10273e+06
1.10273e+06
1.10273e+06
1.10273e+06
1.10273e+06
1.10273e+06
1.10273e+06
1.10273e+06
1.10273e+06
1.10273e+06
1.10273e+06
1.10273e+06
1.10273e+06
1.10273e+06
1.10273e+06
1.10273e+06
1.10273e+06
1.10273e+06
1.10273e+06
1.10273e+06
1.10273e+06
1.10273e+06
1.10273e+06
1.10273e+06
1.10273e+06
1.10273e+06
1.10273e+06
1.10273e+06
1.10273e+06
1.10273e+06
1.10273e+06
1.10273e+06
1.10273e+06
1.10273e+06
1.10273e+06
1.10273e+06
1.10273e+06
1.10273e+06
1.10273e+06
1.10273e+06
1.10273e+06
1.10273e+06
1.10273e+06
1.10273e+06
1.10273e+06
1.10273e+06
1.10273e+06
1.10273e+06
1.10273e+06
1.10273e+06
1.10273e+06
1.10273e+06
1.10273e+06
1.10273e+06
1.10273e+06
1.10273e+06
1.10273e+06
1.10273e+06
1.10273e+06
1.10273e+06
1.10273e+06
1.10273e+06
1.10273e+06
1.10273e+06
1.10273e+06
1.10273e+06
1.10273e+06
1.10273e+06
1.10273e+06
1.10273e+06
1.10273e+06
1.10273e+06
1.79872e+07
3.12324e+06
1.16003e+06
712735
587425
548162
534644
529545
527445
526507
526058
525829
525706
525637
525597
525573
525558
525549
525543
525539
525536
525534
525533
525532
525532
525531
525531
525531
525530
525530
525530
525530
525530
525530
525530
525530
525530
525530
525530
525530
525530
525530
525530
525530
525530
525529
525529
525529
525529
525529
525529
525529
525529
525529
525529
525529
525529
525528
525528
525528
525528
525528
525528
525528
525528
525528
525528
525528
525528
525528
525528
525528
525528
525528
525528
525528
525528
525528
525528
525528
525528
525528
525528
525528
525528
525528
525528
525528
525528
525528
525528
525528
525528
525528
525528
525528
525528
525529
525529
525529
1.79872e+07
3.10627e+06
1.0848e+06
574745
407824
346206
321658
311228
306518
304265
303127
302524
302190
301998
301884
301814
301770
301742
301723
301711
301702
301697
301692
301689
301687
301685
301683
301682
301681
301680
301679
301679
301678
301678
301677
301677
301677
301677
301677
301676
301676
301676
301676
301676
301676
301675
301675
301675
301675
301674
301674
301674
301674
301673
301673
301673
301673
301673
301673
301673
301672
301672
301672
301672
301672
301672
301672
301672
301672
301672
301672
301672
301672
301672
301672
301672
301672
301672
301672
301672
301672
301672
301672
301672
301672
301672
301672
301672
301672
301672
301672
301672
301672
301673
301673
301673
301673
301673
301673
301673
1.79872e+07
3.10325e+06
1.06588e+06
530333
340021
262033
227490
211337
203426
199382
197228
196038
195356
194954
194709
194557
194460
194396
194354
194326
194306
194292
194281
194274
194267
194263
194258
194255
194252
194250
194248
194246
194245
194244
194243
194242
194241
194241
194240
194240
194240
194239
194239
194239
194238
194238
194237
194237
194236
194236
194235
194235
194234
194234
194234
194233
194233
194233
194232
194232
194232
194232
194232
194232
194232
194232
194232
194232
194232
194232
194232
194232
194232
194232
194232
194232
194232
194232
194232
194232
194232
194232
194232
194232
194232
194232
194232
194232
194232
194232
194232
194232
194232
194232
194232
194232
194232
194232
194233
194233
1.79872e+07
3.10254e+06
1.06039e+06
514700
312419
224043
181897
160682
149569
143543
140172
138230
137080
136382
135948
135673
135494
135377
135297
135243
135205
135177
135156
135140
135128
135117
135109
135102
135096
135091
135086
135083
135080
135077
135075
135074
135072
135071
135070
135070
135069
135068
135067
135067
135066
135065
135064
135064
135063
135062
135061
135060
135059
135058
135058
135057
135057
135056
135056
135056
135055
135055
135055
135055
135055
135055
135055
135055
135055
135055
135055
135055
135054
135054
135054
135054
135054
135055
135055
135055
135055
135055
135055
135055
135055
135055
135055
135055
135055
135055
135055
135055
135055
135055
135055
135056
135056
135056
135056
135056
1.79872e+07
3.10233e+06
1.05856e+06
508700
300462
205943
158562
133377
119456
111525
106888
104114
102417
101358
100685
100250
99963.3
99771.4
99640.5
99549.3
99484.2
99436.5
99400.4
99372.2
99349.6
99330.9
99315.3
99302.1
99290.9
99281.4
99273.4
99266.7
99261.2
99256.6
99252.8
99249.7
99247.2
99245.2
99243.5
99242
99240.7
99239.5
99238.3
99237.2
99235.9
99234.6
99233.3
99231.9
99230.4
99229
99227.6
99226.2
99225
99223.8
99222.8
99221.9
99221.1
99220.4
99219.8
99219.4
99219
99218.7
99218.5
99218.3
99218.2
99218.1
99218
99218
99218
99217.9
99217.9
99217.9
99217.9
99217.9
99217.9
99217.9
99217.9
99217.9
99217.9
99217.9
99217.9
99217.9
99218
99218
99218
99218
99218.1
99218.1
99218.2
99218.3
99218.4
99218.5
99218.7
99218.8
99219
99219.2
99219.4
99219.6
99219.8
99219.8
1.79872e+07
3.10225e+06