/*--------------------------------*- C++ -*----------------------------------*\
| =========                 |                                                 |
| \\      /  F ield         | foam-extend: Open Source CFD                    |
|  \\    /   O peration     | Version:     4.0                                |
|   \\  /    A nd           | Web:         http://www.foam-extend.org         |
|    \\/     M anipulation  |                                                 |
\*---------------------------------------------------------------------------*/
FoamFile
{
    version     2.0;
    format      ascii;
    class       volScalarField;
    location    "0.0008";
    object      pd;
}
// * * * * * * * * * * * * * * * * * * * * * * * * * * * * * * * * * * * * * //

dimensions      [1 -1 -2 0 0 0 0];

internalField   nonuniform List<scalar> 
28770
(
2.99823e+07
2.9947e+07
2.99116e+07
2.98763e+07
2.9841e+07
2.98057e+07
2.97704e+07
2.97352e+07
2.97e+07
2.96648e+07
2.96297e+07
2.95946e+07
2.95597e+07
2.95247e+07
2.94899e+07
2.94552e+07
2.94206e+07
2.93861e+07
2.93517e+07
2.93175e+07
2.92835e+07
2.92497e+07
2.92162e+07
2.91829e+07
2.91499e+07
2.91172e+07
2.90849e+07
2.9053e+07
2.90216e+07
2.89907e+07
2.89604e+07
2.89307e+07
2.89018e+07
2.88736e+07
2.88463e+07
2.882e+07
2.87948e+07
2.87707e+07
2.87479e+07
2.87265e+07
2.87065e+07
2.86882e+07
2.86715e+07
2.86567e+07
2.86438e+07
2.86328e+07
2.8624e+07
2.86173e+07
2.86128e+07
2.86105e+07
2.99823e+07
2.9947e+07
2.99116e+07
2.98763e+07
2.9841e+07
2.98057e+07
2.97704e+07
2.97351e+07
2.96999e+07
2.96648e+07
2.96296e+07
2.95946e+07
2.95596e+07
2.95247e+07
2.94898e+07
2.94551e+07
2.94204e+07
2.93859e+07
2.93516e+07
2.93174e+07
2.92833e+07
2.92495e+07
2.92159e+07
2.91826e+07
2.91495e+07
2.91168e+07
2.90845e+07
2.90526e+07
2.90211e+07
2.89901e+07
2.89597e+07
2.893e+07
2.8901e+07
2.88728e+07
2.88454e+07
2.8819e+07
2.87937e+07
2.87695e+07
2.87466e+07
2.87251e+07
2.8705e+07
2.86865e+07
2.86698e+07
2.86549e+07
2.86418e+07
2.86308e+07
2.86219e+07
2.86152e+07
2.86106e+07
2.86084e+07
2.99823e+07
2.9947e+07
2.99116e+07
2.98763e+07
2.98409e+07
2.98056e+07
2.97703e+07
2.97351e+07
2.96999e+07
2.96647e+07
2.96295e+07
2.95945e+07
2.95594e+07
2.95245e+07
2.94896e+07
2.94549e+07
2.94202e+07
2.93857e+07
2.93513e+07
2.9317e+07
2.92829e+07
2.92491e+07
2.92154e+07
2.9182e+07
2.91489e+07
2.91161e+07
2.90837e+07
2.90517e+07
2.90201e+07
2.8989e+07
2.89585e+07
2.89286e+07
2.88995e+07
2.88711e+07
2.88435e+07
2.8817e+07
2.87914e+07
2.87671e+07
2.87439e+07
2.87222e+07
2.87019e+07
2.86833e+07
2.86663e+07
2.86512e+07
2.8638e+07
2.86269e+07
2.86178e+07
2.8611e+07
2.86064e+07
2.8604e+07
2.99823e+07
2.99469e+07
2.99116e+07
2.98762e+07
2.98409e+07
2.98056e+07
2.97703e+07
2.9735e+07
2.96997e+07
2.96645e+07
2.96294e+07
2.95943e+07
2.95592e+07
2.95242e+07
2.94894e+07
2.94545e+07
2.94198e+07
2.93853e+07
2.93508e+07
2.93165e+07
2.92823e+07
2.92484e+07
2.92147e+07
2.91812e+07
2.9148e+07
2.91151e+07
2.90825e+07
2.90503e+07
2.90186e+07
2.89874e+07
2.89567e+07
2.89266e+07
2.88972e+07
2.88686e+07
2.88408e+07
2.88139e+07
2.87881e+07
2.87634e+07
2.874e+07
2.87179e+07
2.86973e+07
2.86784e+07
2.86611e+07
2.86457e+07
2.86322e+07
2.86208e+07
2.86116e+07
2.86046e+07
2.85999e+07
2.85975e+07
2.99823e+07
2.99469e+07
2.99115e+07
2.98762e+07
2.98408e+07
2.98055e+07
2.97701e+07
2.97348e+07
2.96996e+07
2.96643e+07
2.96292e+07
2.9594e+07
2.95589e+07
2.95239e+07
2.9489e+07
2.94541e+07
2.94194e+07
2.93847e+07
2.93502e+07
2.93158e+07
2.92816e+07
2.92475e+07
2.92137e+07
2.91801e+07
2.91467e+07
2.91137e+07
2.90809e+07
2.90486e+07
2.90166e+07
2.89852e+07
2.89542e+07
2.89239e+07
2.88942e+07
2.88652e+07
2.88371e+07
2.88099e+07
2.87837e+07
2.87586e+07
2.87347e+07
2.87123e+07
2.86912e+07
2.86718e+07
2.86541e+07
2.86383e+07
2.86245e+07
2.86128e+07
2.86032e+07
2.8596e+07
2.85912e+07
2.85887e+07
2.99823e+07
2.99469e+07
2.99115e+07
2.98761e+07
2.98407e+07
2.98053e+07
2.977e+07
2.97347e+07
2.96994e+07
2.96641e+07
2.96289e+07
2.95937e+07
2.95586e+07
2.95235e+07
2.94885e+07
2.94536e+07
2.94188e+07
2.93841e+07
2.93494e+07
2.9315e+07
2.92806e+07
2.92465e+07
2.92125e+07
2.91787e+07
2.91452e+07
2.91119e+07
2.9079e+07
2.90464e+07
2.90142e+07
2.89825e+07
2.89512e+07
2.89205e+07
2.88904e+07
2.88611e+07
2.88325e+07
2.88049e+07
2.87781e+07
2.87526e+07
2.87281e+07
2.87051e+07
2.86835e+07
2.86636e+07
2.86453e+07
2.8629e+07
2.86147e+07
2.86026e+07
2.85927e+07
2.85852e+07
2.85801e+07
2.85776e+07
2.99823e+07
2.99469e+07
2.99114e+07
2.9876e+07
2.98406e+07
2.98052e+07
2.97698e+07
2.97345e+07
2.96992e+07
2.96639e+07
2.96286e+07
2.95934e+07
2.95582e+07
2.95231e+07
2.9488e+07
2.9453e+07
2.94181e+07
2.93833e+07
2.93486e+07
2.9314e+07
2.92795e+07
2.92452e+07
2.92111e+07
2.91771e+07
2.91434e+07
2.91099e+07
2.90767e+07
2.90439e+07
2.90114e+07
2.89793e+07
2.89477e+07
2.89166e+07
2.8886e+07
2.88562e+07
2.88271e+07
2.87989e+07
2.87716e+07
2.87454e+07
2.87203e+07
2.86967e+07
2.86743e+07
2.86537e+07
2.86348e+07
2.86179e+07
2.86029e+07
2.85903e+07
2.85799e+07
2.8572e+07
2.85667e+07
2.85641e+07
2.99823e+07
2.99468e+07
2.99114e+07
2.98759e+07
2.98405e+07
2.98051e+07
2.97697e+07
2.97343e+07
2.96989e+07
2.96636e+07
2.96283e+07
2.9593e+07
2.95577e+07
2.95226e+07
2.94874e+07
2.94524e+07
2.94174e+07
2.93824e+07
2.93476e+07
2.93129e+07
2.92783e+07
2.92438e+07
2.92095e+07
2.91753e+07
2.91414e+07
2.91076e+07
2.90742e+07
2.9041e+07
2.90081e+07
2.89757e+07
2.89436e+07
2.8912e+07
2.8881e+07
2.88506e+07
2.88208e+07
2.8792e+07
2.87639e+07
2.87371e+07
2.87111e+07
2.86867e+07
2.86635e+07
2.86421e+07
2.86223e+07
2.86046e+07
2.85889e+07
2.85756e+07
2.85647e+07
2.85564e+07
2.85508e+07
2.8548e+07
2.99823e+07
2.99468e+07
2.99113e+07
2.98758e+07
2.98404e+07
2.98049e+07
2.97695e+07
2.9734e+07
2.96986e+07
2.96632e+07
2.96279e+07
2.95925e+07
2.95572e+07
2.9522e+07
2.94868e+07
2.94516e+07
2.94165e+07
2.93815e+07
2.93465e+07
2.93117e+07
2.92769e+07
2.92422e+07
2.92077e+07
2.91733e+07
2.91391e+07
2.91051e+07
2.90713e+07
2.90378e+07
2.90045e+07
2.89716e+07
2.89391e+07
2.8907e+07
2.88753e+07
2.88444e+07
2.88139e+07
2.87843e+07
2.87554e+07
2.87277e+07
2.87009e+07
2.86755e+07
2.86513e+07
2.86289e+07
2.86081e+07
2.85895e+07
2.85729e+07
2.85587e+07
2.85471e+07
2.85383e+07
2.85323e+07
2.85293e+07
2.99822e+07
2.99467e+07
2.99112e+07
2.98757e+07
2.98402e+07
2.98047e+07
2.97692e+07
2.97338e+07
2.96983e+07
2.96629e+07
2.96275e+07
2.95921e+07
2.95567e+07
2.95214e+07
2.94861e+07
2.94508e+07
2.94156e+07
2.93805e+07
2.93454e+07
2.93103e+07
2.92754e+07
2.92405e+07
2.92058e+07
2.91712e+07
2.91367e+07
2.91024e+07
2.90682e+07
2.90343e+07
2.90006e+07
2.89672e+07
2.89341e+07
2.89014e+07
2.88691e+07
2.88374e+07
2.88061e+07
2.87757e+07
2.87458e+07
2.87172e+07
2.86891e+07
2.86628e+07
2.86372e+07
2.86138e+07
2.85917e+07
2.8572e+07
2.85543e+07
2.85392e+07
2.85267e+07
2.85172e+07
2.85108e+07
2.85075e+07
2.99822e+07
2.99467e+07
2.99111e+07
2.98756e+07
2.98401e+07
2.98045e+07
2.9769e+07
2.97335e+07
2.9698e+07
2.96625e+07
2.9627e+07
2.95916e+07
2.95561e+07
2.95207e+07
2.94853e+07
2.945e+07
2.94147e+07
2.93794e+07
2.93441e+07
2.93089e+07
2.92738e+07
2.92387e+07
2.92038e+07
2.91689e+07
2.91341e+07
2.90994e+07
2.90649e+07
2.90306e+07
2.89964e+07
2.89625e+07
2.89288e+07
2.88955e+07
2.88624e+07
2.883e+07
2.87978e+07
2.87665e+07
2.87355e+07
2.87058e+07
2.86766e+07
2.86489e+07
2.86222e+07
2.85973e+07
2.85739e+07
2.85527e+07
2.85337e+07
2.85174e+07
2.85039e+07
2.84935e+07
2.84865e+07
2.84829e+07
2.99822e+07
2.99466e+07
2.99111e+07
2.98755e+07
2.98399e+07
2.98044e+07
2.97688e+07
2.97332e+07
2.96977e+07
2.96621e+07
2.96266e+07
2.95911e+07
2.95556e+07
2.95201e+07
2.94846e+07
2.94491e+07
2.94137e+07
2.93782e+07
2.93428e+07
2.93075e+07
2.92722e+07
2.92369e+07
2.92016e+07
2.91665e+07
2.91314e+07
2.90964e+07
2.90614e+07
2.90267e+07
2.8992e+07
2.89575e+07
2.89232e+07
2.88892e+07
2.88553e+07
2.8822e+07
2.87887e+07
2.87565e+07
2.87241e+07
2.86934e+07
2.86624e+07
2.86336e+07
2.86049e+07
2.85786e+07
2.85534e+07
2.85307e+07
2.85101e+07
2.84924e+07
2.84776e+07
2.84663e+07
2.84586e+07
2.84546e+07
2.99822e+07
2.99466e+07
2.9911e+07
2.98754e+07
2.98398e+07
2.98042e+07
2.97685e+07
2.97329e+07
2.96973e+07
2.96617e+07
2.96261e+07
2.95905e+07
2.9555e+07
2.95194e+07
2.94838e+07
2.94482e+07
2.94126e+07
2.93771e+07
2.93415e+07
2.9306e+07
2.92705e+07
2.9235e+07
2.91995e+07
2.9164e+07
2.91286e+07
2.90932e+07
2.90579e+07
2.90226e+07
2.89874e+07
2.89524e+07
2.89173e+07
2.88826e+07
2.88479e+07
2.88137e+07
2.87794e+07
2.8746e+07
2.87125e+07
2.86802e+07
2.86479e+07
2.86173e+07
2.85872e+07
2.85589e+07
2.85319e+07
2.85072e+07
2.84847e+07
2.84652e+07
2.84488e+07
2.84361e+07
2.84274e+07
2.8423e+07
2.99822e+07
2.99465e+07
2.99109e+07
2.98752e+07
2.98396e+07
2.9804e+07
2.97683e+07
2.97327e+07
2.9697e+07
2.96613e+07
2.96257e+07
2.959e+07
2.95543e+07
2.95187e+07
2.9483e+07
2.94473e+07
2.94116e+07
2.93759e+07
2.93402e+07
2.93045e+07
2.92687e+07
2.9233e+07
2.91973e+07
2.91615e+07
2.91258e+07
2.909e+07
2.90542e+07
2.90185e+07
2.89827e+07
2.89471e+07
2.89113e+07
2.88758e+07
2.88401e+07
2.8805e+07
2.87694e+07
2.8735e+07
2.86996e+07
2.86663e+07
2.86315e+07
2.85999e+07
2.85667e+07
2.85366e+07
2.85071e+07
2.84803e+07
2.84555e+07
2.84339e+07
2.84157e+07
2.84015e+07
2.83917e+07
2.83868e+07
2.99822e+07
2.99465e+07
2.99108e+07
2.98751e+07
2.98394e+07
2.98038e+07
2.97681e+07
2.97324e+07
2.96967e+07
2.9661e+07
2.96252e+07
2.95895e+07
2.95537e+07
2.9518e+07
2.94822e+07
2.94464e+07
2.94106e+07
2.93747e+07
2.93389e+07
2.9303e+07
2.9267e+07
2.92311e+07
2.91951e+07
2.9159e+07
2.91229e+07
2.90868e+07
2.90506e+07
2.90144e+07
2.8978e+07
2.89418e+07
2.89053e+07
2.8869e+07
2.88324e+07
2.87962e+07
2.87596e+07
2.87236e+07
2.86871e+07
2.86518e+07
2.86157e+07
2.85815e+07
2.8547e+07
2.85141e+07
2.84823e+07
2.84525e+07
2.8425e+07
2.84006e+07
2.83799e+07
2.83635e+07
2.83522e+07
2.83464e+07
2.99821e+07
2.99464e+07
2.99107e+07
2.9875e+07
2.98393e+07
2.98036e+07
2.97678e+07
2.97321e+07
2.96963e+07
2.96606e+07
2.96248e+07
2.9589e+07
2.95532e+07
2.95173e+07
2.94814e+07
2.94455e+07
2.94096e+07
2.93736e+07
2.93376e+07
2.93015e+07
2.92654e+07
2.92292e+07
2.91929e+07
2.91566e+07
2.91201e+07
2.90836e+07
2.9047e+07
2.90103e+07
2.89734e+07
2.89365e+07
2.88992e+07
2.88621e+07
2.88245e+07
2.87873e+07
2.87492e+07
2.87122e+07
2.86734e+07
2.86372e+07
2.85973e+07
2.85633e+07
2.85246e+07
2.85028e+07
2.84682e+07
2.84354e+07
2.84048e+07
2.83773e+07
2.83535e+07
2.83342e+07
2.83203e+07
2.83123e+07
2.99821e+07
2.99464e+07
2.99107e+07
2.98749e+07
2.98392e+07
2.98034e+07
2.97676e+07
2.97318e+07
2.9696e+07
2.96602e+07
2.96244e+07
2.95885e+07
2.95526e+07
2.95167e+07
2.94807e+07
2.94447e+07
2.94086e+07
2.93725e+07
2.93363e+07
2.93001e+07
2.92638e+07
2.92273e+07
2.91908e+07
2.91542e+07
2.91174e+07
2.90806e+07
2.90435e+07
2.90063e+07
2.89689e+07
2.89313e+07
2.88934e+07
2.88554e+07
2.88169e+07
2.87786e+07
2.87393e+07
2.87007e+07
2.86606e+07
2.8622e+07
2.85807e+07
2.85431e+07
2.85041e+07
2.8478e+07
2.84401e+07
2.84036e+07
2.83692e+07
2.83376e+07
2.83101e+07
2.82875e+07
2.82709e+07
2.82614e+07
2.99821e+07
2.99463e+07
2.99106e+07
2.98748e+07
2.9839e+07
2.98032e+07
2.97674e+07
2.97316e+07
2.96957e+07
2.96599e+07
2.9624e+07
2.9588e+07
2.95521e+07
2.95161e+07
2.948e+07
2.94439e+07
2.94077e+07
2.93715e+07
2.93352e+07
2.92988e+07
2.92622e+07
2.92256e+07
2.91889e+07
2.9152e+07
2.91149e+07
2.90776e+07
2.90402e+07
2.90025e+07
2.89645e+07
2.89263e+07
2.88877e+07
2.88489e+07
2.88094e+07
2.877e+07
2.87294e+07
2.86894e+07
2.86474e+07
2.86071e+07
2.85632e+07
2.85231e+07
2.84828e+07
2.84525e+07
2.84108e+07
2.837e+07
2.83308e+07
2.82942e+07
2.82619e+07
2.8235e+07
2.82148e+07
2.8203e+07
2.99821e+07
2.99463e+07
2.99105e+07
2.98747e+07
2.98389e+07
2.98031e+07
2.97672e+07
2.97313e+07
2.96955e+07
2.96595e+07
2.96236e+07
2.95876e+07
2.95516e+07
2.95155e+07
2.94794e+07
2.94432e+07
2.94069e+07
2.93705e+07
2.93341e+07
2.92975e+07
2.92608e+07
2.9224e+07
2.9187e+07
2.91499e+07
2.91125e+07
2.90749e+07
2.90371e+07
2.89989e+07
2.89605e+07
2.89217e+07
2.88824e+07
2.88428e+07
2.88024e+07
2.87619e+07
2.87202e+07
2.86786e+07
2.86351e+07
2.85924e+07
2.85468e+07
2.8503e+07
2.84615e+07
2.84267e+07
2.83807e+07
2.8335e+07
2.82901e+07
2.82404e+07
2.82003e+07
2.81661e+07
2.81404e+07
2.81255e+07
2.99821e+07
2.99463e+07
2.99104e+07
2.98746e+07
2.98388e+07
2.98029e+07
2.9767e+07
2.97311e+07
2.96952e+07
2.96593e+07
2.96233e+07
2.95872e+07
2.95511e+07
2.9515e+07
2.94788e+07
2.94425e+07
2.94061e+07
2.93697e+07
2.93331e+07
2.92964e+07
2.92595e+07
2.92225e+07
2.91854e+07
2.9148e+07
2.91103e+07
2.90724e+07
2.90342e+07
2.89957e+07
2.89567e+07
2.89174e+07
2.88775e+07
2.88372e+07
2.87959e+07
2.87544e+07
2.87115e+07
2.86684e+07
2.86233e+07
2.85786e+07
2.85307e+07
2.84839e+07
2.84406e+07
2.84012e+07
2.83506e+07
2.82993e+07
2.82479e+07
2.8189e+07
2.81393e+07
2.80962e+07
2.8063e+07
2.80438e+07
2.99821e+07
2.99462e+07
2.99104e+07
2.98745e+07
2.98387e+07
2.98028e+07
2.97669e+07
2.9731e+07
2.9695e+07
2.9659e+07
2.9623e+07
2.95869e+07
2.95507e+07
2.95145e+07
2.94783e+07
2.94419e+07
2.94055e+07
2.93689e+07
2.93322e+07
2.92954e+07
2.92584e+07
2.92213e+07
2.91839e+07
2.91463e+07
2.91084e+07
2.90703e+07
2.90317e+07
2.89928e+07
2.89535e+07
2.89136e+07
2.88731e+07
2.88321e+07
2.87902e+07
2.87476e+07
2.87037e+07
2.86593e+07
2.86128e+07
2.85659e+07
2.85161e+07
2.84661e+07
2.8421e+07
2.83767e+07
2.83211e+07
2.82637e+07
2.82048e+07
2.81346e+07
2.80732e+07
2.80176e+07
2.79727e+07
2.79457e+07
2.99821e+07
2.99462e+07
2.99103e+07
2.98745e+07
2.98386e+07
2.98027e+07
2.97668e+07
2.97308e+07
2.96948e+07
2.96588e+07
2.96227e+07
2.95866e+07
2.95504e+07
2.95142e+07
2.94778e+07
2.94414e+07
2.94049e+07
2.93683e+07
2.93315e+07
2.92946e+07
2.92575e+07
2.92202e+07
2.91827e+07
2.91449e+07
2.91068e+07
2.90684e+07
2.90296e+07
2.89904e+07
2.89507e+07
2.89104e+07
2.88694e+07
2.88278e+07
2.87852e+07
2.87418e+07
2.8697e+07
2.86513e+07
2.86035e+07
2.85548e+07
2.85031e+07
2.84502e+07
2.84035e+07
2.83541e+07
2.82935e+07
2.82296e+07
2.81623e+07
2.80791e+07
2.80031e+07
2.79296e+07
2.78654e+07
2.78243e+07
2.99821e+07
2.99462e+07
2.99103e+07
2.98744e+07
2.98385e+07
2.98026e+07
2.97667e+07
2.97307e+07
2.96947e+07
2.96586e+07
2.96225e+07
2.95864e+07
2.95502e+07
2.95139e+07
2.94775e+07
2.9441e+07
2.94045e+07
2.93678e+07
2.93309e+07
2.92939e+07
2.92567e+07
2.92193e+07
2.91817e+07
2.91438e+07
2.91055e+07
2.90669e+07
2.90279e+07
2.89885e+07
2.89484e+07
2.89078e+07
2.88665e+07
2.88244e+07
2.87812e+07
2.87371e+07
2.86915e+07
2.86448e+07
2.85959e+07
2.85456e+07
2.84923e+07
2.8437e+07
2.83891e+07
2.83344e+07
2.8269e+07
2.81986e+07
2.81226e+07
2.80256e+07
2.7932e+07
2.78341e+07
2.77409e+07
2.76576e+07
2.99821e+07
2.99462e+07
2.99103e+07
2.98744e+07
2.98385e+07
2.98025e+07
2.97666e+07
2.97306e+07
2.96946e+07
2.96585e+07
2.96224e+07
2.95862e+07
2.955e+07
2.95137e+07
2.94773e+07
2.94408e+07
2.94041e+07
2.93674e+07
2.93305e+07
2.92934e+07
2.92562e+07
2.92187e+07
2.9181e+07
2.91429e+07
2.91046e+07
2.90658e+07
2.90267e+07
2.8987e+07
2.89468e+07
2.89059e+07
2.88643e+07
2.88218e+07
2.87782e+07
2.87336e+07
2.86874e+07
2.864e+07
2.85902e+07
2.85388e+07
2.84841e+07
2.84269e+07
2.83784e+07
2.83188e+07
2.82492e+07
2.81732e+07
2.8089e+07
2.79788e+07
2.78665e+07
2.7738e+07
2.75912e+07
2.74391e+07
2.99821e+07
2.99462e+07
2.99103e+07
2.98744e+07
2.98384e+07
2.98025e+07
2.97665e+07
2.97305e+07
2.96945e+07
2.96584e+07
2.96223e+07
2.95861e+07
2.95499e+07
2.95135e+07
2.94771e+07
2.94406e+07
2.94039e+07
2.93672e+07
2.93302e+07
2.92931e+07
2.92558e+07
2.92183e+07
2.91805e+07
2.91424e+07
2.9104e+07
2.90652e+07
2.90259e+07
2.89861e+07
2.89458e+07
2.89048e+07
2.88629e+07
2.88202e+07
2.87764e+07
2.87315e+07
2.86849e+07
2.86369e+07
2.85867e+07
2.85344e+07
2.8479e+07
2.84205e+07
2.83721e+07
2.83081e+07
2.82356e+07
2.81553e+07
2.8065e+07
2.79447e+07
2.78169e+07
2.76601e+07
2.74652e+07
2.71779e+07
2.99821e+07
2.99462e+07
2.99103e+07
2.98744e+07
2.98384e+07
2.98025e+07
2.97665e+07
2.97305e+07
2.96945e+07
2.96584e+07
2.96223e+07
2.95861e+07
2.95498e+07
2.95135e+07
2.9477e+07
2.94405e+07
2.94039e+07
2.93671e+07
2.93301e+07
2.9293e+07
2.92557e+07
2.92182e+07
2.91804e+07
2.91422e+07
2.91038e+07
2.90649e+07
2.90256e+07
2.89858e+07
2.89454e+07
2.89044e+07
2.88624e+07
2.88197e+07
2.87757e+07
2.87307e+07
2.8684e+07
2.86359e+07
2.85855e+07
2.8533e+07
2.84772e+07
2.84184e+07
2.83708e+07
2.83033e+07
2.82294e+07
2.81471e+07
2.80538e+07
2.79296e+07
2.7795e+07
2.76248e+07
2.74101e+07
2.70822e+07
2.99821e+07
2.99462e+07
2.99103e+07
2.98744e+07
2.98384e+07
2.98025e+07
2.97665e+07
2.97305e+07
2.96945e+07
2.96584e+07
2.96223e+07
2.95861e+07
2.95499e+07
2.95135e+07
2.94771e+07
2.94406e+07
2.94039e+07
2.93672e+07
2.93302e+07
2.92931e+07
2.92558e+07
2.92183e+07
2.91805e+07
2.91424e+07
2.9104e+07
2.90652e+07
2.90259e+07
2.89861e+07
2.89458e+07
2.89048e+07
2.88629e+07
2.88202e+07
2.87764e+07
2.87315e+07
2.86849e+07
2.86369e+07
2.85867e+07
2.85344e+07
2.8479e+07
2.84205e+07
2.83746e+07
2.8305e+07
2.82316e+07
2.81499e+07
2.80576e+07
2.79371e+07
2.78077e+07
2.76462e+07
2.74524e+07
2.71494e+07
2.99821e+07
2.99462e+07
2.99103e+07
2.98744e+07
2.98385e+07
2.98025e+07
2.97666e+07
2.97306e+07
2.96946e+07
2.96585e+07
2.96224e+07
2.95862e+07
2.955e+07
2.95137e+07
2.94773e+07
2.94408e+07
2.94041e+07
2.93674e+07
2.93305e+07
2.92934e+07
2.92562e+07
2.92187e+07
2.9181e+07
2.91429e+07
2.91046e+07
2.90658e+07
2.90267e+07
2.8987e+07
2.89468e+07
2.89059e+07
2.88643e+07
2.88218e+07
2.87782e+07
2.87336e+07
2.86874e+07
2.864e+07
2.85902e+07
2.85388e+07
2.84841e+07
2.84269e+07
2.83832e+07
2.8313e+07
2.82418e+07
2.81633e+07
2.80757e+07
2.79653e+07
2.78509e+07
2.77157e+07
2.75738e+07
2.73972e+07
2.99821e+07
2.99462e+07
2.99103e+07
2.98744e+07
2.98385e+07
2.98026e+07
2.97667e+07
2.97307e+07
2.96947e+07
2.96586e+07
2.96225e+07
2.95864e+07
2.95502e+07
2.95139e+07
2.94775e+07
2.9441e+07
2.94045e+07
2.93678e+07
2.93309e+07
2.92939e+07
2.92567e+07
2.92193e+07
2.91817e+07
2.91438e+07
2.91055e+07
2.90669e+07
2.90279e+07
2.89885e+07
2.89484e+07
2.89078e+07
2.88665e+07
2.88244e+07
2.87812e+07
2.87371e+07
2.86915e+07
2.86448e+07
2.85959e+07
2.85456e+07
2.84923e+07
2.8437e+07
2.83958e+07
2.83263e+07
2.82587e+07
2.81853e+07
2.8105e+07
2.80082e+07
2.7913e+07
2.78092e+07
2.77171e+07
2.76333e+07
2.99821e+07
2.99462e+07
2.99103e+07
2.98745e+07
2.98386e+07
2.98027e+07
2.97668e+07
2.97308e+07
2.96948e+07
2.96588e+07
2.96227e+07
2.95866e+07
2.95504e+07
2.95142e+07
2.94778e+07
2.94414e+07
2.94049e+07
2.93683e+07
2.93315e+07
2.92946e+07
2.92575e+07
2.92202e+07
2.91827e+07
2.91449e+07
2.91068e+07
2.90684e+07
2.90296e+07
2.89904e+07
2.89507e+07
2.89104e+07
2.88694e+07
2.88278e+07
2.87852e+07
2.87418e+07
2.8697e+07
2.86513e+07
2.86035e+07
2.85548e+07
2.85031e+07
2.84502e+07
2.84118e+07
2.83442e+07
2.82811e+07
2.82139e+07
2.81421e+07
2.80599e+07
2.79833e+07
2.79062e+07
2.78365e+07
2.77893e+07
2.99821e+07
2.99462e+07
2.99104e+07
2.98745e+07
2.98387e+07
2.98028e+07
2.97669e+07
2.9731e+07
2.9695e+07
2.9659e+07
2.9623e+07
2.95869e+07
2.95507e+07
2.95145e+07
2.94783e+07
2.94419e+07
2.94055e+07
2.93689e+07
2.93322e+07
2.92954e+07
2.92584e+07
2.92213e+07
2.91839e+07
2.91463e+07
2.91084e+07
2.90703e+07
2.90317e+07
2.89928e+07
2.89535e+07
2.89136e+07
2.88731e+07
2.88321e+07
2.87902e+07
2.87476e+07
2.87037e+07
2.86593e+07
2.86128e+07
2.85659e+07
2.85161e+07
2.84661e+07
2.84304e+07
2.83655e+07
2.83075e+07
2.82467e+07
2.81836e+07
2.81149e+07
2.80538e+07
2.79961e+07
2.79479e+07
2.79181e+07
2.99821e+07
2.99463e+07
2.99104e+07
2.98746e+07
2.98388e+07
2.98029e+07
2.9767e+07
2.97311e+07
2.96952e+07
2.96593e+07
2.96233e+07
2.95872e+07
2.95511e+07
2.9515e+07
2.94788e+07
2.94425e+07
2.94061e+07
2.93697e+07
2.93331e+07
2.92964e+07
2.92595e+07
2.92225e+07
2.91854e+07
2.9148e+07
2.91103e+07
2.90724e+07
2.90342e+07
2.89957e+07
2.89567e+07
2.89174e+07
2.88775e+07
2.88372e+07
2.87959e+07
2.87544e+07
2.87115e+07
2.86684e+07
2.86233e+07
2.85786e+07
2.85307e+07
2.84839e+07
2.84508e+07
2.83892e+07
2.83362e+07
2.82818e+07
2.82267e+07
2.81697e+07
2.81208e+07
2.80766e+07
2.80416e+07
2.8021e+07
2.99821e+07
2.99463e+07
2.99105e+07
2.98747e+07
2.98389e+07
2.98031e+07
2.97672e+07
2.97313e+07
2.96955e+07
2.96595e+07
2.96236e+07
2.95876e+07
2.95516e+07
2.95155e+07
2.94794e+07
2.94432e+07
2.94069e+07
2.93705e+07
2.93341e+07
2.92975e+07
2.92608e+07
2.9224e+07
2.9187e+07
2.91499e+07
2.91125e+07
2.90749e+07
2.90371e+07
2.89989e+07
2.89605e+07
2.89217e+07
2.88824e+07
2.88428e+07
2.88024e+07
2.87619e+07
2.87202e+07
2.86786e+07
2.86351e+07
2.85924e+07
2.85468e+07
2.8503e+07
2.84724e+07
2.8414e+07
2.83659e+07
2.83176e+07
2.82695e+07
2.82224e+07
2.81827e+07
2.81479e+07
2.81213e+07
2.8106e+07
2.99821e+07
2.99463e+07
2.99106e+07
2.98748e+07
2.9839e+07
2.98032e+07
2.97674e+07
2.97316e+07
2.96957e+07
2.96599e+07
2.9624e+07
2.9588e+07
2.95521e+07
2.95161e+07
2.948e+07
2.94439e+07
2.94077e+07
2.93715e+07
2.93352e+07
2.92988e+07
2.92622e+07
2.92256e+07
2.91889e+07
2.9152e+07
2.91149e+07
2.90776e+07
2.90402e+07
2.90025e+07
2.89645e+07
2.89263e+07
2.88877e+07
2.88489e+07
2.88094e+07
2.877e+07
2.87294e+07
2.86894e+07
2.86474e+07
2.86071e+07
2.85632e+07
2.85231e+07
2.84946e+07
2.84392e+07
2.83957e+07
2.83527e+07
2.83113e+07
2.82731e+07
2.82372e+07
2.82068e+07
2.8184e+07
2.81707e+07
2.99821e+07
2.99464e+07
2.99107e+07
2.98749e+07
2.98392e+07
2.98034e+07
2.97676e+07
2.97318e+07
2.9696e+07
2.96602e+07
2.96244e+07
2.95885e+07
2.95526e+07
2.95167e+07
2.94807e+07
2.94447e+07
2.94086e+07
2.93725e+07
2.93363e+07
2.93001e+07
2.92638e+07
2.92273e+07
2.91908e+07
2.91542e+07
2.91174e+07
2.90806e+07
2.90435e+07
2.90063e+07
2.89689e+07
2.89313e+07
2.88934e+07
2.88554e+07
2.88169e+07
2.87786e+07
2.87393e+07
2.87007e+07
2.86606e+07
2.8622e+07
2.85807e+07
2.85431e+07
2.85169e+07
2.8464e+07
2.84245e+07
2.83862e+07
2.83499e+07
2.83165e+07
2.82866e+07
2.82618e+07
2.82436e+07
2.82332e+07
2.99821e+07
2.99464e+07
2.99107e+07
2.9875e+07
2.98393e+07
2.98036e+07
2.97678e+07
2.97321e+07
2.96963e+07
2.96606e+07
2.96248e+07
2.9589e+07
2.95532e+07
2.95173e+07
2.94814e+07
2.94455e+07
2.94096e+07
2.93736e+07
2.93376e+07
2.93015e+07
2.92654e+07
2.92292e+07
2.91929e+07
2.91566e+07
2.91201e+07
2.90836e+07
2.9047e+07
2.90103e+07
2.89734e+07
2.89365e+07
2.88992e+07
2.88621e+07
2.88245e+07
2.87873e+07
2.87492e+07
2.87122e+07
2.86734e+07
2.86372e+07
2.85973e+07
2.85633e+07
2.85388e+07
2.84877e+07
2.84519e+07
2.84176e+07
2.83856e+07
2.83565e+07
2.83311e+07
2.83106e+07
2.82957e+07
2.82875e+07
2.99822e+07
2.99465e+07
2.99108e+07
2.98751e+07
2.98394e+07
2.98038e+07
2.97681e+07
2.97324e+07
2.96967e+07
2.9661e+07
2.96252e+07
2.95895e+07
2.95537e+07
2.9518e+07
2.94822e+07
2.94464e+07
2.94106e+07
2.93747e+07
2.93389e+07
2.9303e+07
2.9267e+07
2.92311e+07
2.91951e+07
2.9159e+07
2.91229e+07
2.90868e+07
2.90506e+07
2.90144e+07
2.8978e+07
2.89418e+07
2.89053e+07
2.8869e+07
2.88324e+07
2.87962e+07
2.87596e+07
2.87236e+07
2.86871e+07
2.86518e+07
2.86157e+07
2.85815e+07
2.8547e+07
2.85141e+07
2.84823e+07
2.84525e+07
2.8425e+07
2.84006e+07
2.83799e+07
2.83635e+07
2.83522e+07
2.83464e+07
2.99822e+07
2.99465e+07
2.99109e+07
2.98752e+07
2.98396e+07
2.9804e+07
2.97683e+07
2.97327e+07
2.9697e+07
2.96613e+07
2.96257e+07
2.959e+07
2.95543e+07
2.95187e+07
2.9483e+07
2.94473e+07
2.94116e+07
2.93759e+07
2.93402e+07
2.93045e+07
2.92687e+07
2.9233e+07
2.91973e+07
2.91615e+07
2.91258e+07
2.909e+07
2.90542e+07
2.90185e+07
2.89827e+07
2.89471e+07
2.89113e+07
2.88758e+07
2.88401e+07
2.8805e+07
2.87694e+07
2.8735e+07
2.86996e+07
2.86663e+07
2.86315e+07
2.85999e+07
2.85667e+07
2.85366e+07
2.85071e+07
2.84803e+07
2.84555e+07
2.84339e+07
2.84157e+07
2.84015e+07
2.83917e+07
2.83868e+07
2.99822e+07
2.99466e+07
2.9911e+07
2.98754e+07
2.98398e+07
2.98042e+07
2.97685e+07
2.97329e+07
2.96973e+07
2.96617e+07
2.96261e+07
2.95905e+07
2.9555e+07
2.95194e+07
2.94838e+07
2.94482e+07
2.94126e+07
2.93771e+07
2.93415e+07
2.9306e+07
2.92705e+07
2.9235e+07
2.91995e+07
2.9164e+07
2.91286e+07
2.90932e+07
2.90579e+07
2.90226e+07
2.89874e+07
2.89524e+07
2.89173e+07
2.88826e+07
2.88479e+07
2.88137e+07
2.87794e+07
2.8746e+07
2.87125e+07
2.86802e+07
2.86479e+07
2.86173e+07
2.85872e+07
2.85589e+07
2.85319e+07
2.85072e+07
2.84847e+07
2.84652e+07
2.84488e+07
2.84361e+07
2.84274e+07
2.8423e+07
2.99822e+07
2.99466e+07
2.99111e+07
2.98755e+07
2.98399e+07
2.98044e+07
2.97688e+07
2.97332e+07
2.96977e+07
2.96621e+07
2.96266e+07
2.95911e+07
2.95556e+07
2.95201e+07
2.94846e+07
2.94491e+07
2.94137e+07
2.93782e+07
2.93428e+07
2.93075e+07
2.92722e+07
2.92369e+07
2.92016e+07
2.91665e+07
2.91314e+07
2.90964e+07
2.90614e+07
2.90267e+07
2.8992e+07
2.89575e+07
2.89232e+07
2.88892e+07
2.88553e+07
2.8822e+07
2.87887e+07
2.87565e+07
2.87241e+07
2.86934e+07
2.86624e+07
2.86336e+07
2.86049e+07
2.85786e+07
2.85534e+07
2.85307e+07
2.85101e+07
2.84924e+07
2.84776e+07
2.84663e+07
2.84586e+07
2.84546e+07
2.99822e+07
2.99467e+07
2.99111e+07
2.98756e+07
2.98401e+07
2.98045e+07
2.9769e+07
2.97335e+07
2.9698e+07
2.96625e+07
2.9627e+07
2.95916e+07
2.95561e+07
2.95207e+07
2.94853e+07
2.945e+07
2.94147e+07
2.93794e+07
2.93441e+07
2.93089e+07
2.92738e+07
2.92387e+07
2.92038e+07
2.91689e+07
2.91341e+07
2.90994e+07
2.90649e+07
2.90306e+07
2.89964e+07
2.89625e+07
2.89288e+07
2.88955e+07
2.88624e+07
2.883e+07
2.87978e+07
2.87665e+07
2.87355e+07
2.87058e+07
2.86766e+07
2.86489e+07
2.86222e+07
2.85973e+07
2.85739e+07
2.85527e+07
2.85337e+07
2.85174e+07
2.85039e+07
2.84935e+07
2.84865e+07
2.84829e+07
2.99822e+07
2.99467e+07
2.99112e+07
2.98757e+07
2.98402e+07
2.98047e+07
2.97692e+07
2.97338e+07
2.96983e+07
2.96629e+07
2.96275e+07
2.95921e+07
2.95567e+07
2.95214e+07
2.94861e+07
2.94508e+07
2.94156e+07
2.93805e+07
2.93454e+07
2.93103e+07
2.92754e+07
2.92405e+07
2.92058e+07
2.91712e+07
2.91367e+07
2.91024e+07
2.90682e+07
2.90343e+07
2.90006e+07
2.89672e+07
2.89341e+07
2.89014e+07
2.88691e+07
2.88374e+07
2.88061e+07
2.87757e+07
2.87458e+07
2.87172e+07
2.86891e+07
2.86628e+07
2.86372e+07
2.86138e+07
2.85917e+07
2.8572e+07
2.85543e+07
2.85392e+07
2.85267e+07
2.85172e+07
2.85108e+07
2.85075e+07
2.99823e+07
2.99468e+07
2.99113e+07
2.98758e+07
2.98404e+07
2.98049e+07
2.97695e+07
2.9734e+07
2.96986e+07
2.96632e+07
2.96279e+07
2.95925e+07
2.95572e+07
2.9522e+07
2.94868e+07
2.94516e+07
2.94165e+07
2.93815e+07
2.93465e+07
2.93117e+07
2.92769e+07
2.92422e+07
2.92077e+07
2.91733e+07
2.91391e+07
2.91051e+07
2.90713e+07
2.90378e+07
2.90045e+07
2.89716e+07
2.89391e+07
2.8907e+07
2.88753e+07
2.88444e+07
2.88139e+07
2.87843e+07
2.87554e+07
2.87277e+07
2.87009e+07
2.86755e+07
2.86513e+07
2.86289e+07
2.86081e+07
2.85895e+07
2.85729e+07
2.85587e+07
2.85471e+07
2.85383e+07
2.85323e+07
2.85293e+07
2.99823e+07
2.99468e+07
2.99114e+07
2.98759e+07
2.98405e+07
2.98051e+07
2.97697e+07
2.97343e+07
2.96989e+07
2.96636e+07
2.96283e+07
2.9593e+07
2.95577e+07
2.95226e+07
2.94874e+07
2.94524e+07
2.94174e+07
2.93824e+07
2.93476e+07
2.93129e+07
2.92783e+07
2.92438e+07
2.92095e+07
2.91753e+07
2.91414e+07
2.91076e+07
2.90742e+07
2.9041e+07
2.90081e+07
2.89757e+07
2.89436e+07
2.8912e+07
2.8881e+07
2.88506e+07
2.88208e+07
2.8792e+07
2.87639e+07
2.87371e+07
2.87111e+07
2.86867e+07
2.86635e+07
2.86421e+07
2.86223e+07
2.86046e+07
2.85889e+07
2.85756e+07
2.85647e+07
2.85564e+07
2.85508e+07
2.8548e+07
2.99823e+07
2.99469e+07
2.99114e+07
2.9876e+07
2.98406e+07
2.98052e+07
2.97698e+07
2.97345e+07
2.96992e+07
2.96639e+07
2.96286e+07
2.95934e+07
2.95582e+07
2.95231e+07
2.9488e+07
2.9453e+07
2.94181e+07
2.93833e+07
2.93486e+07
2.9314e+07
2.92795e+07
2.92452e+07
2.92111e+07
2.91771e+07
2.91434e+07
2.91099e+07
2.90767e+07
2.90439e+07
2.90114e+07
2.89793e+07
2.89477e+07
2.89166e+07
2.8886e+07
2.88562e+07
2.88271e+07
2.87989e+07
2.87716e+07
2.87454e+07
2.87203e+07
2.86967e+07
2.86743e+07
2.86537e+07
2.86348e+07
2.86179e+07
2.86029e+07
2.85903e+07
2.85799e+07
2.8572e+07
2.85667e+07
2.85641e+07
2.99823e+07
2.99469e+07
2.99115e+07
2.98761e+07
2.98407e+07
2.98053e+07
2.977e+07
2.97347e+07
2.96994e+07
2.96641e+07
2.96289e+07
2.95937e+07
2.95586e+07
2.95235e+07
2.94885e+07
2.94536e+07
2.94188e+07
2.93841e+07
2.93494e+07
2.9315e+07
2.92806e+07
2.92465e+07
2.92125e+07
2.91787e+07
2.91452e+07
2.91119e+07
2.9079e+07
2.90464e+07
2.90142e+07
2.89825e+07
2.89512e+07
2.89205e+07
2.88904e+07
2.88611e+07
2.88325e+07
2.88049e+07
2.87781e+07
2.87526e+07
2.87281e+07
2.87051e+07
2.86835e+07
2.86636e+07
2.86453e+07
2.8629e+07
2.86147e+07
2.86026e+07
2.85927e+07
2.85852e+07
2.85801e+07
2.85776e+07
2.99823e+07
2.99469e+07
2.99115e+07
2.98762e+07
2.98408e+07
2.98055e+07
2.97701e+07
2.97348e+07
2.96996e+07
2.96643e+07
2.96292e+07
2.9594e+07
2.95589e+07
2.95239e+07
2.9489e+07
2.94541e+07
2.94194e+07
2.93847e+07
2.93502e+07
2.93158e+07
2.92816e+07
2.92475e+07
2.92137e+07
2.91801e+07
2.91467e+07
2.91137e+07
2.90809e+07
2.90486e+07
2.90166e+07
2.89852e+07
2.89542e+07
2.89239e+07
2.88942e+07
2.88652e+07
2.88371e+07
2.88099e+07
2.87837e+07
2.87586e+07
2.87347e+07
2.87123e+07
2.86912e+07
2.86718e+07
2.86541e+07
2.86383e+07
2.86245e+07
2.86128e+07
2.86032e+07
2.8596e+07
2.85912e+07
2.85887e+07
2.99823e+07
2.99469e+07
2.99116e+07
2.98762e+07
2.98409e+07
2.98056e+07
2.97703e+07
2.9735e+07
2.96997e+07
2.96645e+07
2.96294e+07
2.95943e+07
2.95592e+07
2.95242e+07
2.94894e+07
2.94545e+07
2.94198e+07
2.93853e+07
2.93508e+07
2.93165e+07
2.92823e+07
2.92484e+07
2.92147e+07
2.91812e+07
2.9148e+07
2.91151e+07
2.90825e+07
2.90503e+07
2.90186e+07
2.89874e+07
2.89567e+07
2.89266e+07
2.88972e+07
2.88686e+07
2.88408e+07
2.88139e+07
2.87881e+07
2.87634e+07
2.874e+07
2.87179e+07
2.86973e+07
2.86784e+07
2.86611e+07
2.86457e+07
2.86322e+07
2.86208e+07
2.86116e+07
2.86046e+07
2.85999e+07
2.85975e+07
2.99823e+07
2.9947e+07
2.99116e+07
2.98763e+07
2.98409e+07
2.98056e+07
2.97703e+07
2.97351e+07
2.96999e+07
2.96647e+07
2.96295e+07
2.95945e+07
2.95594e+07
2.95245e+07
2.94896e+07
2.94549e+07
2.94202e+07
2.93857e+07
2.93513e+07
2.9317e+07
2.92829e+07
2.92491e+07
2.92154e+07
2.9182e+07
2.91489e+07
2.91161e+07
2.90837e+07
2.90517e+07
2.90201e+07
2.8989e+07
2.89585e+07
2.89286e+07
2.88995e+07
2.88711e+07
2.88435e+07
2.8817e+07
2.87914e+07
2.87671e+07
2.87439e+07
2.87222e+07
2.87019e+07
2.86833e+07
2.86663e+07
2.86512e+07
2.8638e+07
2.86269e+07
2.86178e+07
2.8611e+07
2.86064e+07