/*--------------------------------*- C++ -*----------------------------------*\
| =========                 |                                                 |
| \\      /  F ield         | foam-extend: Open Source CFD                    |
|  \\    /   O peration     | Version:     4.0                                |
|   \\  /    A nd           | Web:         http://www.foam-extend.org         |
|    \\/     M anipulation  |                                                 |
\*---------------------------------------------------------------------------*/
FoamFile
{
    version     2.0;
    format      ascii;
    class       surfaceScalarField;
    location    "0.0008";
    object      phi;
}
// * * * * * * * * * * * * * * * * * * * * * * * * * * * * * * * * * * * * * //

dimensions      [0 3 -1 0 0 0 0];

internalField   nonuniform List<scalar> 
57362
(
4.98222e-11
2.95849e-15
4.98132e-11
8.92064e-15
4.97982e-11
1.5019e-14
4.97769e-11
2.13464e-14
4.97489e-11
2.7999e-14
4.97138e-11
3.50777e-14
4.96711e-11
4.26889e-14
4.96201e-11
5.09467e-14
4.95602e-11
5.99739e-14
4.94902e-11
6.99038e-14
4.94094e-11
8.08815e-14
4.93163e-11
9.30661e-14
4.92096e-11
1.06632e-13
4.90879e-11
1.2177e-13
4.89492e-11
1.38691e-13
4.87915e-11
1.57628e-13
4.86127e-11
1.78832e-13
4.84101e-11
2.02583e-13
4.81809e-11
2.29185e-13
4.79219e-11
2.58968e-13
4.76296e-11
2.92291e-13
4.73e-11
3.29536e-13
4.69289e-11
3.71121e-13
4.65113e-11
4.17472e-13
4.60423e-11
4.69063e-13
4.55159e-11
5.26335e-13
4.4926e-11
5.89822e-13
4.4266e-11
6.59908e-13
4.35288e-11
7.37203e-13
4.27068e-11
8.21893e-13
4.17922e-11
9.14703e-13
4.07766e-11
1.01539e-12
3.96518e-11
1.12486e-12
3.84094e-11
1.24209e-12
3.70413e-11
1.36828e-12
3.55398e-11
1.50122e-12
3.38976e-11
1.64241e-12
3.2109e-11
1.78819e-12
3.01691e-11
1.94011e-12
2.80755e-11
2.09322e-12
2.58272e-11
2.24851e-12
2.34265e-11
2.40036e-12
2.08782e-11
2.54855e-12
1.81904e-11
2.68758e-12
1.53746e-11
2.81594e-12
1.24457e-11
2.92884e-12
9.42175e-12
3.02411e-12
6.32364e-12
3.09813e-12
3.17475e-12
3.14903e-12
3.17485e-12
4.98228e-11
5.87306e-15
4.9814e-11
1.77089e-14
4.97992e-11
2.98153e-14
4.97782e-11
4.23767e-14
4.97506e-11
5.55841e-14
4.97161e-11
6.96377e-14
4.9674e-11
8.47494e-14
4.96238e-11
1.01146e-13
4.95647e-11
1.19071e-13
4.94958e-11
1.38789e-13
4.94161e-11
1.60591e-13
4.93243e-11
1.84791e-13
4.92192e-11
2.11736e-13
4.90992e-11
2.41808e-13
4.89624e-11
2.75427e-13
4.8807e-11
3.13053e-13
4.86306e-11
3.55193e-13
4.84308e-11
4.02401e-13
4.82047e-11
4.55285e-13
4.79491e-11
5.14505e-13
4.76606e-11
5.80778e-13
4.73352e-11
6.54871e-13
4.69687e-11
7.37621e-13
4.65563e-11
8.29882e-13
4.60927e-11
9.32613e-13
4.55723e-11
1.04669e-12
4.49889e-11
1.17322e-12
4.43358e-11
1.31295e-12
4.36059e-11
1.46715e-12
4.27915e-11
1.63617e-12
4.18847e-11
1.82156e-12
4.08772e-11
2.02276e-12
3.97605e-11
2.24177e-12
3.8526e-11
2.47636e-12
3.71653e-11
2.72931e-12
3.56705e-11
2.99576e-12
3.40341e-11
3.27938e-12
3.22499e-11
3.5721e-12
3.03127e-11
3.87799e-12
2.82196e-11
4.18604e-12
2.59694e-11
4.49939e-12
2.35641e-11
4.80561e-12
2.10081e-11
5.10517e-12
1.83095e-11
5.38619e-12
1.54799e-11
5.64611e-12
1.25341e-11
5.87478e-12
9.49066e-12
6.06798e-12
6.37087e-12
6.21814e-12
3.19877e-12
6.32148e-12
6.3739e-12
4.98393e-11
8.7013e-15
4.98308e-11
2.6237e-14
4.98165e-11
4.41738e-14
4.9796e-11
6.27854e-14
4.97693e-11
8.23552e-14
4.97357e-11
1.0318e-13
4.96949e-11
1.25574e-13
4.96462e-11
1.49874e-13
4.95888e-11
1.76443e-13
4.95219e-11
2.05673e-13
4.94445e-11
2.37994e-13
4.93554e-11
2.73876e-13
4.92533e-11
3.13836e-13
4.91366e-11
3.5844e-13
4.90037e-11
4.08313e-13
4.88526e-11
4.64144e-13
4.86811e-11
5.26688e-13
4.84867e-11
5.96773e-13
4.82667e-11
6.75308e-13
4.80179e-11
7.6328e-13
4.77369e-11
8.61769e-13
4.74198e-11
9.71923e-13
4.70624e-11
1.09501e-12
4.66599e-11
1.2323e-12
4.62073e-11
1.38527e-12
4.56986e-11
1.55525e-12
4.51279e-11
1.7439e-12
4.44884e-11
1.95239e-12
4.37728e-11
2.18269e-12
4.29735e-11
2.43533e-12
4.20823e-11
2.71277e-12
4.10906e-11
3.01411e-12
3.99898e-11
3.34267e-12
3.87708e-11
3.69488e-12
3.74248e-11
4.07542e-12
3.59433e-11
4.47658e-12
3.43181e-11
4.90465e-12
3.25426e-11
5.34679e-12
3.06106e-11
5.81007e-12
2.85186e-11
6.27715e-12
2.62644e-11
6.75345e-12
2.38495e-11
7.21968e-12
2.12778e-11
7.67678e-12
1.8557e-11
8.10632e-12
1.56986e-11
8.50437e-12
1.27179e-11
8.85509e-12
9.63394e-12
9.15185e-12
6.46909e-12
9.38274e-12
3.24872e-12
9.54179e-12
9.6225e-12
4.98563e-11
1.14011e-14
4.98481e-11
3.43778e-14
4.98344e-11
5.78807e-14
4.9815e-11
8.22691e-14
4.97894e-11
1.07915e-13
4.97574e-11
1.35207e-13
4.97184e-11
1.6456e-13
4.96718e-11
1.96414e-13
4.9617e-11
2.31246e-13
4.95531e-11
2.69574e-13
4.94791e-11
3.11961e-13
4.9394e-11
3.59029e-13
4.92963e-11
4.11455e-13
4.91848e-11
4.69989e-13
4.90576e-11
5.35456e-13
4.8913e-11
6.08765e-13
4.87488e-11
6.90915e-13
4.85625e-11
7.83005e-13
4.83516e-11
8.86242e-13
4.81129e-11
1.00194e-12
4.78431e-11
1.13153e-12
4.75384e-11
1.27656e-12
4.71947e-11
1.43871e-12
4.68073e-11
1.61972e-12
4.6371e-11
1.82155e-12
4.58802e-11
2.04601e-12
4.53287e-11
2.29541e-12
4.47097e-11
2.57129e-12
4.40161e-11
2.87646e-12
4.32397e-11
3.21157e-12
4.23724e-11
3.58029e-12
4.14051e-11
3.98114e-12
4.03289e-11
4.41938e-12
3.9134e-11
4.88944e-12
3.78111e-11
5.39924e-12
3.63506e-11
5.93661e-12
3.47435e-11
6.51302e-12
3.29821e-11
7.10776e-12
3.10587e-11
7.73503e-12
2.89693e-11
8.36638e-12
2.67097e-11
9.01466e-12
2.4281e-11
9.64847e-12
2.16859e-11
1.02733e-11
1.89319e-11
1.08606e-11
1.60304e-11
1.14071e-11
1.29969e-11
1.18891e-11
9.85171e-12
1.2298e-11
6.61847e-12
1.26165e-11
3.32473e-12
1.28362e-11
1.29478e-11
4.98734e-11
1.3932e-14
4.98658e-11
4.20097e-14
4.98529e-11
7.07316e-14
4.98346e-11
1.00537e-13
4.98107e-11
1.31882e-13
4.97806e-11
1.65243e-13
4.97441e-11
2.01127e-13
4.97004e-11
2.40074e-13
4.9649e-11
2.8267e-13
4.9589e-11
3.2955e-13
4.95195e-11
3.81407e-13
4.94395e-11
4.39003e-13
4.93478e-11
5.03173e-13
4.9243e-11
5.74842e-13
4.91234e-11
6.55027e-13
4.89873e-11
7.44849e-13
4.88326e-11
8.45547e-13
4.86571e-11
9.58482e-13
4.84582e-11
1.08515e-12
4.82329e-11
1.2272e-12
4.7978e-11
1.38641e-12
4.76899e-11
1.5647e-12
4.73643e-11
1.76422e-12
4.69968e-11
1.98714e-12
4.65824e-11
2.23597e-12
4.61153e-11
2.51298e-12
4.55896e-11
2.82118e-12
4.49981e-11
3.16253e-12
4.43339e-11
3.54077e-12
4.35884e-11
3.95669e-12
4.27534e-11
4.41536e-12
4.18193e-11
4.9147e-12
4.07765e-11
5.46226e-12
3.96147e-11
6.05032e-12
3.83235e-11
6.69061e-12
3.68925e-11
7.36627e-12
3.5311e-11
8.0945e-12
3.35704e-11
8.84673e-12
3.16609e-11
9.64428e-12
2.9577e-11
1.04484e-11
2.7313e-11
1.12781e-11
2.4868e-11
1.20917e-11
2.22435e-11
1.28971e-11
1.9446e-11
1.36566e-11
1.64868e-11
1.43656e-11
1.33817e-11
1.49929e-11
1.01526e-11
1.55266e-11
6.82521e-12
1.59431e-11
3.43001e-12
1.6231e-11
1.63773e-11
4.99056e-11
1.62569e-14
4.98986e-11
4.90206e-14
4.98868e-11
8.25373e-14
4.987e-11
1.17321e-13
4.9848e-11
1.53905e-13
4.98204e-11
1.92847e-13
4.97868e-11
2.3474e-13
4.97466e-11
2.80217e-13
4.96993e-11
3.29965e-13
4.96441e-11
3.84729e-13
4.95802e-11
4.45322e-13
4.95066e-11
5.12641e-13
4.94221e-11
5.87668e-13
4.93254e-11
6.71493e-13
4.92151e-11
7.65315e-13
4.90895e-11
8.70461e-13
4.89466e-11
9.88399e-13
4.87843e-11
1.12074e-12
4.86002e-11
1.26928e-12
4.83914e-11
1.43595e-12
4.81549e-11
1.62292e-12
4.78871e-11
1.83249e-12
4.75841e-11
2.06724e-12
4.72414e-11
2.32979e-12
4.68541e-11
2.62323e-12
4.64167e-11
2.95033e-12
4.59231e-11
3.31485e-12
4.53663e-11
3.71918e-12
4.47392e-11
4.16817e-12
4.4033e-11
4.66268e-12
4.32393e-11
5.20963e-12
4.23476e-11
5.80593e-12
4.13484e-11
6.46262e-12
4.02296e-11
7.16841e-12
3.89804e-11
7.94177e-12
3.75884e-11
8.75723e-12
3.60415e-11
9.64429e-12
3.43293e-11
1.05579e-11
3.24388e-11
1.15385e-11
3.03639e-11
1.25226e-11
2.80944e-11
1.35515e-11
2.5629e-11
1.45572e-11
2.29672e-11
1.55623e-11
2.0114e-11
1.65105e-11
1.70809e-11
1.74015e-11
1.38834e-11
1.81914e-11
1.05455e-11
1.88663e-11
7.09541e-12
1.93944e-11
3.56773e-12
1.97601e-11
1.99462e-11
4.99373e-11
1.83406e-14
4.9931e-11
5.53043e-14
4.99204e-11
9.31195e-14
4.99053e-11
1.32368e-13
4.98856e-11
1.73651e-13
4.98608e-11
2.17602e-13
4.98307e-11
2.64892e-13
4.97947e-11
3.16238e-13
4.97522e-11
3.72419e-13
4.97026e-11
4.34281e-13
4.96452e-11
5.02748e-13
4.9579e-11
5.78839e-13
4.9503e-11
6.63676e-13
4.9416e-11
7.58499e-13
4.93166e-11
8.6468e-13
4.92033e-11
9.8374e-13
4.90743e-11
1.11736e-12
4.89277e-11
1.2674e-12
4.8761e-11
1.43592e-12
4.85718e-11
1.62517e-12
4.8357e-11
1.83766e-12
4.81134e-11
2.07608e-12
4.78372e-11
2.34344e-12
4.7524e-11
2.64284e-12
4.71693e-11
2.97796e-12
4.67674e-11
3.35208e-12
4.63125e-11
3.76976e-12
4.57975e-11
4.23389e-12
4.52153e-11
4.75053e-12
4.45566e-11
5.32066e-12
4.38132e-11
5.95329e-12
4.29737e-11
6.64438e-12
4.20279e-11
7.40876e-12
4.09627e-11
8.23181e-12
3.97659e-11
9.13882e-12
3.8424e-11
1.00967e-11
3.6922e-11
1.11461e-11
3.52482e-11
1.22286e-11
3.33863e-11
1.33995e-11
3.13276e-11
1.45778e-11
2.9059e-11
1.58185e-11
2.65751e-11
1.70373e-11
2.38729e-11
1.82625e-11
2.09552e-11
1.94249e-11
1.78324e-11
2.05224e-11
1.45208e-11
2.15005e-11
1.10463e-11
2.23394e-11
7.44071e-12
2.29982e-11
3.74395e-12
2.34557e-11
2.3689e-11
4.99679e-11
2.01514e-14
4.99624e-11
6.07652e-14
4.99532e-11
1.02317e-13
4.99401e-11
1.45447e-13
4.9923e-11
1.9082e-13
4.99014e-11
2.39132e-13
4.98752e-11
2.91124e-13
4.98438e-11
3.47589e-13
4.98069e-11
4.09386e-13
4.97637e-11
4.77452e-13
4.97136e-11
5.5281e-13
4.96559e-11
6.36591e-13
4.95895e-11
7.3004e-13
4.95134e-11
8.34538e-13
4.94265e-11
9.51614e-13
4.93273e-11
1.08297e-12
4.92141e-11
1.23048e-12
4.90853e-11
1.39624e-12
4.89386e-11
1.58256e-12
4.87718e-11
1.792e-12
4.85821e-11
2.0274e-12
4.83663e-11
2.29181e-12
4.8121e-11
2.58872e-12
4.78422e-11
2.92167e-12
4.75252e-11
3.29495e-12
4.71648e-11
3.71237e-12
4.67554e-11
4.17941e-12
4.62897e-11
4.69939e-12
4.57609e-11
5.27985e-12
4.51593e-11
5.92177e-12
4.44769e-11
6.6369e-12
4.37007e-11
7.41957e-12
4.28214e-11
8.29038e-12
4.1823e-11
9.22866e-12
4.06935e-11
1.02724e-11
3.94156e-11
1.13722e-11
3.79729e-11
1.25951e-11
3.63511e-11
1.38475e-11
3.4527e-11
1.52319e-11
3.24939e-11
1.66088e-11
3.02268e-11
1.80941e-11
2.77224e-11
1.95417e-11
2.49738e-11
2.10185e-11
2.19796e-11
2.24206e-11
1.87512e-11
2.37564e-11
1.5302e-11
2.4952e-11
1.1662e-11
2.59833e-11
7.86593e-12
2.67966e-11
3.96133e-12
2.73632e-11
2.76526e-11
5.00122e-11
2.16619e-14
5.00076e-11
6.53211e-14
5e-11
1.09991e-13
4.99891e-11
1.56363e-13
4.99747e-11
2.05152e-13
4.99567e-11
2.57111e-13
4.99348e-11
3.13039e-13
4.99086e-11
3.73794e-13
4.98777e-11
4.40305e-13
4.98416e-11
5.13586e-13
4.97996e-11
5.94748e-13
4.97512e-11
6.85017e-13
4.96955e-11
7.85749e-13
4.96316e-11
8.98447e-13
4.95584e-11
1.02478e-12
4.94747e-11
1.16661e-12
4.93792e-11
1.326e-12
4.92702e-11
1.50526e-12
4.91458e-11
1.70693e-12
4.90039e-11
1.93384e-12
4.88421e-11
2.18917e-12
4.86576e-11
2.47632e-12
4.84471e-11
2.79922e-12
4.82067e-11
3.16188e-12
4.79325e-11
3.5692e-12
4.76191e-11
4.02556e-12
4.72613e-11
4.53732e-12
4.68518e-11
5.1084e-12
4.63841e-11
5.7478e-12
4.58481e-11
6.45675e-12
4.52358e-11
7.24968e-12
4.45336e-11
8.11993e-12
4.37312e-11
9.09338e-12
4.28119e-11
1.01451e-11
4.17613e-11
1.13234e-11
4.05614e-11
1.25679e-11
3.91913e-11
1.39647e-11
3.76357e-11
1.53979e-11
3.58662e-11
1.6999e-11
3.38716e-11
1.85973e-11
3.16249e-11
2.03365e-11
2.91115e-11
2.20481e-11
2.63198e-11
2.38052e-11
2.32441e-11
2.54897e-11
1.98924e-11
2.71037e-11
1.62788e-11
2.85604e-11
1.2435e-11
2.98236e-11
8.40197e-12
3.08261e-11
4.23581e-12
3.15267e-11
3.18859e-11
5.00544e-11
2.28486e-14
5.00508e-11
6.89006e-14
5.00448e-11
1.16022e-13
5.00362e-11
1.64943e-13
5.00249e-11
2.16423e-13
5.00108e-11
2.71257e-13
4.99935e-11
3.30293e-13
4.99729e-11
3.94441e-13
4.99485e-11
4.64688e-13
4.992e-11
5.42111e-13
4.98868e-11
6.27893e-13
4.98485e-11
7.23342e-13
4.98043e-11
8.29906e-13
4.97536e-11
9.49193e-13
4.96953e-11
1.083e-12
4.96286e-11
1.23331e-12
4.95523e-11
1.40237e-12
4.94649e-11
1.59265e-12
4.93648e-11
1.80694e-12
4.92504e-11
2.04831e-12
4.91193e-11
2.32022e-12
4.89692e-11
2.62645e-12
4.87971e-11
2.97132e-12
4.85996e-11
3.35931e-12
4.8373e-11
3.79591e-12
4.81123e-11
4.2861e-12
4.78129e-11
4.83715e-12
4.74672e-11
5.45362e-12
4.70699e-11
6.1461e-12
4.66097e-11
6.91606e-12
4.60803e-11
7.78118e-12
4.54652e-11
8.73315e-12
4.47573e-11
9.80556e-12
4.39336e-11
1.09653e-11
4.29845e-11
1.22805e-11
4.18825e-11
1.36641e-11
4.0609e-11
1.5251e-11
3.91431e-11
1.68564e-11
3.74425e-11
1.87169e-11
3.55097e-11
2.0524e-11
3.328e-11
2.25843e-11
3.0753e-11
2.45748e-11
2.79148e-11
2.66582e-11
2.47451e-11
2.86629e-11
2.12555e-11
3.06041e-11
1.74494e-11
3.23713e-11
1.33662e-11
3.39143e-11
9.04929e-12
3.51475e-11
4.56819e-12
3.60131e-11
3.64584e-11
5.00938e-11
2.36928e-14
5.00912e-11
7.14471e-14
5.00869e-11
1.20314e-13
5.00808e-11
1.71052e-13
5.00728e-11
2.24453e-13
5.00627e-11
2.81344e-13
5.00504e-11
3.42609e-13
5.00356e-11
4.09197e-13
5.00182e-11
4.82139e-13
4.99977e-11
5.6256e-13
4.99739e-11
6.51702e-13
4.99463e-11
7.50933e-13
4.99144e-11
8.61775e-13
4.98777e-11
9.85923e-13
4.98354e-11
1.12527e-12
4.97868e-11
1.28192e-12
4.97309e-11
1.45824e-12
4.96667e-11
1.65688e-12
4.95928e-11
1.88081e-12
4.95078e-11
2.13332e-12
4.94099e-11
2.41815e-12
4.92969e-11
2.73938e-12
4.91665e-11
3.10172e-12
4.90155e-11
3.51011e-12
4.88409e-11
3.9706e-12
4.86379e-11
4.48877e-12
4.84025e-11
5.07277e-12
4.81274e-11
5.72795e-12
4.78077e-11
6.46631e-12
4.74321e-11
7.29011e-12
4.69945e-11
8.21965e-12
4.64783e-11
9.24659e-12
4.58749e-11
1.04101e-11
4.51621e-11
1.16736e-11
4.43253e-11
1.31181e-11
4.33399e-11
1.46431e-11
4.21776e-11
1.64123e-11
4.08203e-11
1.82059e-11
3.9218e-11
2.03141e-11
3.73641e-11
2.23686e-11
3.52058e-11
2.47328e-11
3.27059e-11
2.70619e-11
2.98407e-11
2.95125e-11
2.6585e-11
3.19061e-11
2.29398e-11
3.42398e-11
1.89112e-11
3.63899e-11
1.45358e-11
3.82825e-11
9.86751e-12
3.98091e-11
4.98932e-12
4.08862e-11
4.1443e-11
5.0145e-11
2.41807e-14
5.01435e-11
7.29196e-14
5.01411e-11
1.22797e-13
5.01375e-11
1.74591e-13
5.01329e-11
2.29111e-13
5.0127e-11
2.87207e-13
5.01198e-11
3.49784e-13
5.01112e-11
4.17817e-13
5.0101e-11
4.92367e-13
5.00889e-11
5.74591e-13
5.00749e-11
6.65768e-13
5.00585e-11
7.67313e-13
5.00395e-11
8.808e-13
5.00174e-11
1.00798e-12
4.99918e-11
1.15083e-12
4.99622e-11
1.31154e-12
4.99279e-11
1.49258e-12
4.9888e-11
1.69672e-12
4.98418e-11
1.92709e-12
4.97879e-11
2.18717e-12
4.97251e-11
2.48093e-12
4.96517e-11
2.81272e-12
4.95659e-11
3.18761e-12
4.9465e-11
3.61093e-12
4.93466e-11
4.08926e-12
4.92063e-11
4.62881e-12
4.90411e-11
5.2385e-12
4.88438e-11
5.92459e-12
4.86113e-11
6.70036e-12
4.83307e-11
7.56916e-12
4.79999e-11
8.5538e-12
4.75969e-11
9.64626e-12
4.71221e-11
1.08921e-11
4.65393e-11
1.22496e-11
4.58516e-11
1.38199e-11
4.50084e-11
1.54741e-11
4.40023e-11
1.74426e-11
4.27938e-11
1.93966e-11
4.13112e-11
2.18315e-11
3.96053e-11
2.40579e-11
3.74853e-11
2.68885e-11
3.49808e-11
2.95672e-11
3.20937e-11
3.24264e-11
2.87403e-11
3.52681e-11
2.4935e-11
3.80641e-11
2.06506e-11
4.06847e-11
1.5938e-11
4.30082e-11
1.08519e-11
4.49039e-11
5.49805e-12
4.6249e-11
4.69485e-11
5.01921e-11
2.43039e-14
5.01917e-11
7.32923e-14
5.01911e-11
1.23429e-13
5.01902e-11
1.75498e-13
5.0189e-11
2.30316e-13
5.01875e-11
2.88741e-13
5.01856e-11
3.51688e-13
5.01832e-11
4.20144e-13
5.01804e-11
4.9518e-13
5.0177e-11
5.77973e-13
5.0173e-11
6.6982e-13
5.01681e-11
7.72159e-13
5.01623e-11
8.86594e-13
5.01554e-11
1.01492e-12
5.01471e-11
1.15914e-12
5.01371e-11
1.32152e-12
5.01251e-11
1.50459e-12
5.01106e-11
1.71123e-12
5.0093e-11
1.94467e-12
5.00716e-11
2.20853e-12
5.00456e-11
2.50696e-12
5.00137e-11
2.84455e-12
4.99747e-11
3.22663e-12
4.99265e-11
3.65894e-12
4.98675e-11
4.14845e-12
4.97938e-11
4.70203e-12
4.97034e-11
5.32922e-12
4.95897e-11
6.03738e-12
4.94501e-11
6.84067e-12
4.92729e-11
7.74428e-12
4.90558e-11
8.77237e-12
4.87786e-11
9.91957e-12
4.84383e-11
1.12344e-11
4.80046e-11
1.2677e-11
4.74684e-11
1.4358e-11
4.67929e-11
1.61404e-11
4.59457e-11
1.8289e-11
4.49059e-11
2.04252e-11
4.35811e-11
2.31474e-11
4.2009e-11
2.56187e-11
4.00867e-11
2.87904e-11
3.77089e-11
3.19206e-11
3.4842e-11
3.52715e-11
3.14242e-11
3.86631e-11
2.74378e-11
4.20318e-11
2.28664e-11
4.52376e-11
1.77402e-11
4.81205e-11
1.21289e-11
5.05034e-11
6.16038e-12
5.22091e-11
5.31015e-11
5.02343e-11
2.40594e-14
5.0235e-11
7.25561e-14
5.02363e-11
1.22193e-13
5.0238e-11
1.73749e-13
5.02403e-11
2.28035e-13
5.02431e-11
2.85906e-13
5.02466e-11
3.48271e-13
5.02506e-11
4.16113e-13
5.02553e-11
4.90501e-13
5.02606e-11
5.72609e-13
5.02667e-11
6.63735e-13
5.02736e-11
7.65319e-13
5.02812e-11
8.78971e-13
5.02896e-11
1.00649e-12
5.02988e-11
1.14991e-12
5.03089e-11
1.3115e-12
5.03196e-11
1.49385e-12
5.0331e-11
1.69986e-12
5.03428e-11
1.93284e-12
5.03548e-11
2.19651e-12
5.03667e-11
2.49513e-12
5.03777e-11
2.83346e-12
5.03874e-11
3.21703e-12
5.03943e-11
3.6519e-12
5.03977e-11
4.14536e-12
5.03945e-11
4.70491e-12
5.0384e-11
5.34045e-12
5.03599e-11
6.06067e-12
5.03225e-11
6.87997e-12
5.02582e-11
7.80636e-12
5.01718e-11
8.86344e-12
5.00343e-11
1.00519e-11
4.98616e-11
1.14175e-11
4.95952e-11
1.29322e-11
4.92732e-11
1.47016e-11
4.87894e-11
1.66017e-11
4.82026e-11
1.89168e-11
4.73849e-11
2.12043e-11
4.62654e-11
2.43338e-11
4.50907e-11
2.67486e-11
4.31957e-11
3.0752e-11
4.07529e-11
3.43743e-11
3.79631e-11
3.81042e-11
3.44993e-11
4.21481e-11
3.03702e-11
4.61911e-11
2.54807e-11
5.01493e-11
1.98857e-11
5.37374e-11
1.36579e-11
5.6747e-11
6.9579e-12
5.89226e-11
6.00707e-11
5.02863e-11
2.34497e-14
5.02881e-11
7.07186e-14
5.02912e-11
1.19102e-13
5.02956e-11
1.69362e-13
5.03014e-11
2.22292e-13
5.03085e-11
2.78728e-13
5.03172e-11
3.39561e-13
5.03276e-11
4.05756e-13
5.03397e-11
4.78362e-13
5.03538e-11
5.58532e-13
5.037e-11
6.47544e-13
5.03885e-11
7.46818e-13
5.04095e-11
8.57944e-13
5.04333e-11
9.82706e-13
5.04601e-11
1.12311e-12
5.04902e-11
1.28143e-12
5.05238e-11
1.46024e-12
5.05612e-11
1.66244e-12
5.06027e-11
1.89135e-12
5.06485e-11
2.15074e-12
5.06987e-11
2.44489e-12
5.07534e-11
2.7787e-12
5.08128e-11
3.15778e-12
5.0876e-11
3.58844e-12
5.09434e-11
4.07813e-12
5.10129e-11
4.63494e-12
5.10849e-11
5.26895e-12
5.11542e-11
5.99016e-12
5.12224e-11
6.81289e-12
5.1278e-11
7.74821e-12
5.13249e-11
8.81857e-12
5.13405e-11
1.00316e-11
5.13324e-11
1.1429e-11
5.12592e-11
1.29969e-11
5.11314e-11
1.48341e-11
5.08842e-11
1.68358e-11
5.05068e-11
1.92978e-11
4.99476e-11
2.17471e-11
4.90122e-11
2.52594e-11
4.79717e-11
2.77847e-11
4.66281e-11
1.75824e-11
1.44759e-11
4.46113e-11
1.65546e-11
1.97841e-11
4.19152e-11
1.8768e-11
2.19924e-11
3.84471e-11
2.12265e-11
2.43473e-11
3.41408e-11
2.37625e-11
2.66979e-11
2.89202e-11
2.63338e-11
2.8997e-11
2.27594e-11
2.88035e-11
3.10636e-11
1.57327e-11
3.10092e-11
3.27395e-11
8.04644e-12
3.275e-11
3.38404e-11
3.38643e-11
3.42373e-11
5.03304e-11
2.2483e-14
5.03333e-11
6.78044e-14
5.03382e-11
1.14197e-13
5.03452e-11
1.62395e-13
5.03543e-11
2.13161e-13
5.03658e-11
2.673e-13
5.03797e-11
3.25671e-13
5.03962e-11
3.89204e-13
5.04157e-11
4.58912e-13
5.04383e-11
5.35911e-13
5.04644e-11
6.21435e-13
5.04944e-11
7.16864e-13
5.05286e-11
8.23739e-13
5.05675e-11
9.43798e-13
5.06116e-11
1.079e-12
5.06615e-11
1.23156e-12
5.07177e-11
1.40401e-12
5.0781e-11
1.5992e-12
5.08519e-11
1.8204e-12
5.09313e-11
2.07135e-12
5.10199e-11
2.35631e-12
5.11184e-11
2.68018e-12
5.12277e-11
3.04858e-12
5.13481e-11
3.46796e-12
5.14808e-11
3.94578e-12
5.16247e-11
4.49062e-12
5.17821e-11
5.1124e-12
5.19487e-11
5.82257e-12
5.21293e-11
6.63449e-12
5.23115e-11
7.56339e-12
5.2508e-11
8.62743e-12
5.26863e-11
9.84676e-12
5.28814e-11
1.12463e-11
5.30111e-11
1.28523e-11
5.31734e-11
1.4699e-11
5.31559e-11
1.682e-11
5.32514e-11
1.92606e-11
5.28561e-11
2.2069e-11
5.29598e-11
2.52842e-11
2.6459e-11
2.90308e-11
2.50859e-11
-1.48359e-11
1.54599e-11
2.61453e-11
-2.45827e-11
2.4109e-11
1.69965e-11
-2.38119e-11
2.31995e-11
1.93891e-11
-2.26314e-11
2.18539e-11
2.2035e-11
-2.10309e-11
2.00072e-11
2.48268e-11
-1.88848e-11
1.75763e-11
2.76821e-11
-1.61327e-11
1.45379e-11
3.04276e-11
-1.27933e-11
1.09185e-11
3.29021e-11
-8.90727e-12
6.79046e-12
3.48775e-11
-4.57766e-12
2.30613e-12
3.61438e-11
5.03737e-11
2.11731e-14
5.03777e-11
6.38548e-14
5.03843e-11
1.07548e-13
5.03938e-11
1.52947e-13
5.04061e-11
2.00771e-13
5.04217e-11
2.51782e-13
5.04405e-11
3.06793e-13
5.04631e-11
3.66685e-13
5.04896e-11
4.32417e-13
5.05204e-11
5.05048e-13
5.05561e-11
5.85754e-13
5.05971e-11
6.75844e-13
5.06441e-11
7.76791e-13
5.06976e-11
8.90252e-13
5.07585e-11
1.0181e-12
5.08276e-11
1.16247e-12
5.09059e-11
1.32578e-12
5.09943e-11
1.5108e-12
5.1094e-11
1.72068e-12
5.12063e-11
1.95905e-12
5.13326e-11
2.23008e-12
5.14741e-11
2.53858e-12
5.16327e-11
2.89004e-12
5.18096e-11
3.29094e-12
5.2007e-11
3.74858e-12
5.22253e-11
4.27183e-12
5.24679e-11
4.87031e-12
5.27328e-11
5.55654e-12
5.30256e-11
6.34289e-12
5.33385e-11
7.24789e-12
5.36823e-11
8.28626e-12
5.40359e-11
9.48777e-12
5.4422e-11
1.08654e-11
5.479e-11
1.24739e-11
5.51928e-11
1.43059e-11
5.55076e-11
1.64858e-11
5.5884e-11
1.89037e-11
5.59823e-11
2.19314e-11
5.63387e-11
2.49755e-11
2.88983e-11
2.94783e-11
2.69021e-11
-1.5593e-11
1.5963e-11
2.87247e-11
-2.67272e-11
2.63838e-11
-1.77338e-11
1.79976e-11
-2.61857e-11
2.57028e-11
-2.02901e-11
2.07363e-11
-2.5235e-11
2.45447e-11
-2.31237e-11
2.38055e-11
-2.3781e-11
2.2791e-11
-2.6149e-11
2.71495e-11
-2.16856e-11
2.02957e-11
-2.9245e-11
3.06554e-11
-1.87263e-11
1.69873e-11
-3.23092e-11
3.40581e-11
-1.50396e-11
1.29107e-11
-3.50841e-11
3.72131e-11
-1.05874e-11
8.10418e-12
-3.72933e-11
3.97741e-11
-5.48201e-12
2.76633e-12
-3.86768e-11
4.13944e-11
5.04155e-11
1.9539e-14
5.04204e-11
5.89272e-14
5.04287e-11
9.92517e-14
5.04405e-11
1.41154e-13
5.0456e-11
1.85301e-13
5.04753e-11
2.32397e-13
5.04989e-11
2.83198e-13
5.05271e-11
3.38519e-13
5.05603e-11
3.99252e-13
5.05989e-11
4.66381e-13
5.06437e-11
5.40999e-13
5.06952e-11
6.24328e-13
5.07543e-11
7.17741e-13
5.08217e-11
8.22789e-13
5.08986e-11
9.41228e-13
5.0986e-11
1.07506e-12
5.10853e-11
1.22656e-12
5.11978e-11
1.39833e-12
5.13251e-11
1.59338e-12
5.1469e-11
1.81515e-12
5.16315e-11
2.06759e-12
5.18147e-11
2.35534e-12
5.20212e-11
2.68366e-12
5.22532e-11
3.05886e-12
5.25142e-11
3.48794e-12
5.28058e-11
3.97982e-12
5.31334e-11
4.54361e-12
5.34964e-11
5.19247e-12
5.39038e-11
5.93765e-12
5.43489e-11
6.80018e-12
5.48487e-11
7.79147e-12
5.53813e-11
8.94902e-12
5.59816e-11
1.02762e-11
5.65927e-11
1.18491e-11
5.72876e-11
1.36343e-11
5.79365e-11
1.5808e-11
5.86799e-11
1.82056e-11
5.92694e-11
2.12861e-11
5.9885e-11
2.44398e-11
3.1262e-11
2.89905e-11
2.90166e-11
-1.59545e-11
1.60377e-11
3.13019e-11
-2.916e-11
2.89965e-11
-1.84681e-11
1.85907e-11
-2.89443e-11
2.86418e-11
-2.13705e-11
2.16717e-11
-2.83184e-11
2.77948e-11
-2.46686e-11
2.52202e-11
-2.71526e-11
2.62839e-11
-2.83091e-11
2.92323e-11
-2.53304e-11
2.37906e-11
-3.20341e-11
3.36563e-11
-2.20018e-11
2.01587e-11
-3.59645e-11
3.78506e-11
-1.79997e-11
1.55897e-11
-3.9605e-11
4.2032e-11
-1.28796e-11
9.91976e-12
-4.25662e-11
4.55315e-11
-6.74096e-12
3.41099e-12
-4.44306e-11
4.77647e-11
5.04535e-11
1.76049e-14
5.04594e-11
5.30949e-14
5.04692e-11
8.94304e-14
5.04831e-11
1.27191e-13
5.05015e-11
1.66979e-13
5.05244e-11
2.09433e-13
5.05524e-11
2.55234e-13
5.05858e-11
3.05122e-13
5.06252e-11
3.59904e-13
5.06711e-11
4.20473e-13
5.07242e-11
4.87821e-13
5.07855e-11
5.63061e-13
5.08558e-11
6.4744e-13
5.09363e-11
7.42374e-13
5.1028e-11
8.49467e-13
5.11325e-11
9.70549e-13
5.12514e-11
1.10771e-12
5.13864e-11
1.26335e-12
5.15396e-11
1.44023e-12
5.17132e-11
1.64153e-12
5.19099e-11
1.87094e-12
5.21324e-11
2.13277e-12
5.23843e-11
2.43192e-12
5.26686e-11
2.77439e-12
5.299e-11
3.16671e-12
5.33519e-11
3.61751e-12
5.37608e-11
4.13527e-12
5.42191e-11
4.7332e-12
5.47366e-11
5.4214e-12
5.53124e-11
6.22204e-12
5.59625e-11
7.14407e-12
5.66773e-11
8.22929e-12
5.7484e-11
9.47491e-12
5.83541e-11
1.09695e-11
5.93339e-11
1.26648e-11
6.03569e-11
1.47674e-11
6.14986e-11
1.70839e-11
6.26268e-11
2.01255e-11
6.38222e-11
2.32834e-11
3.3624e-11
2.78249e-11
3.1306e-11
-1.58579e-11
1.56588e-11
3.38967e-11
-3.18537e-11
3.19156e-11
-1.87735e-11
1.86911e-11
-3.2077e-11
3.20238e-11
-2.20166e-11
2.20857e-11
-3.1911e-11
3.16701e-11
-2.58328e-11
2.61186e-11
-3.11641e-11
3.07168e-11
-3.03403e-11
3.08674e-11
-1.52539e-11
-1.83186e-11
1.46493e-11
1.8568e-11
-1.33254e-11
-2.12845e-11
1.27328e-11
2.16322e-11
-1.08547e-11
-2.38258e-11
1.00742e-11
2.44368e-11
-7.5219e-12
-2.58716e-11
6.53573e-12
2.67509e-11
-3.39869e-12
2.81314e-11
-2.70498e-11
2.27348e-12
5.04873e-11
1.53998e-14
5.0494e-11
4.64452e-14
5.05052e-11
7.82318e-14
5.05211e-11
1.11267e-13
5.0542e-11
1.46081e-13
5.05682e-11
1.83232e-13
5.06001e-11
2.23319e-13
5.06382e-11
2.66992e-13
5.06832e-11
3.1496e-13
5.07356e-11
3.68009e-13
5.07965e-11
4.27013e-13
5.08666e-11
4.92953e-13
5.09471e-11
5.6693e-13
5.10393e-11
6.50196e-13
5.11446e-11
7.44171e-13
5.12647e-11
8.50478e-13
5.14014e-11
9.70975e-13
5.1557e-11
1.1078e-12
5.17338e-11
1.26342e-12
5.19347e-11
1.44068e-12
5.21628e-11
1.64289e-12
5.24216e-11
1.87395e-12
5.27153e-11
2.13827e-12
5.30483e-11
2.44134e-12
5.34262e-11
2.78907e-12
5.38539e-11
3.18949e-12
5.43397e-11
3.65025e-12
5.48881e-11
4.18396e-12
5.55116e-11
4.79963e-12
5.62126e-11
5.51894e-12
5.7011e-11
6.34959e-12
5.79026e-11
7.33298e-12
5.89197e-11
8.46602e-12
6.00439e-11
9.83533e-12
6.1325e-11
1.13997e-11
6.27222e-11
1.3351e-11
6.42946e-11
1.55396e-11
6.59888e-11
1.83983e-11
6.78051e-11
2.15097e-11
3.60221e-11
2.58161e-11
3.37438e-11
-1.52537e-11
1.47571e-11
3.65664e-11
-3.47666e-11
3.51061e-11
-1.85585e-11
1.82054e-11
-3.55572e-11
3.58157e-11
-2.20769e-11
2.18357e-11
-3.60428e-11
3.61083e-11
-2.63078e-11
2.628e-11
-3.60043e-11
3.56857e-11
-3.12828e-11
3.16524e-11
-1.84527e-11
-1.94314e-11
1.78972e-11
1.96634e-11
-1.65781e-11
-2.30576e-11
1.59774e-11
2.35016e-11
-1.38984e-11
-2.67202e-11
1.30353e-11
2.75052e-11
-9.91719e-12
-2.99378e-11
8.69815e-12
3.11157e-11
-4.57348e-12
3.34505e-11
-3.19716e-11
3.07901e-12
5.05178e-11
1.29574e-14
5.05252e-11
3.90792e-14
5.05376e-11
6.58257e-14
5.05552e-11
9.36253e-14
5.05784e-11
1.22924e-13
5.06074e-11
1.54193e-13
5.06428e-11
1.87939e-13
5.06851e-11
2.24709e-13
5.0735e-11
2.65103e-13
5.07932e-11
3.09787e-13
5.08607e-11
3.59499e-13
5.09386e-11
4.1507e-13
5.10281e-11
4.77435e-13
5.11307e-11
5.47656e-13
5.12479e-11
6.26941e-13
5.13817e-11
7.16672e-13
5.15343e-11
8.18434e-13
5.17081e-11
9.34054e-13
5.19059e-11
1.06564e-12
5.21309e-11
1.21565e-12
5.23869e-11
1.38691e-12
5.26781e-11
1.5828e-12
5.30093e-11
1.80714e-12
5.33858e-11
2.06472e-12
5.38144e-11
2.36065e-12
5.43016e-11
2.70205e-12
5.48568e-11
3.09557e-12
5.54874e-11
3.55256e-12
5.62073e-11
4.08081e-12
5.70242e-11
4.70025e-12
5.79588e-11
5.41732e-12
5.90174e-11
6.27069e-12
6.02309e-11
7.25703e-12
6.16019e-11
8.45733e-12
6.31741e-11
9.83575e-12
6.49446e-11
1.15683e-11
6.69644e-11
1.3534e-11
6.92326e-11
1.61103e-11
7.17684e-11
1.89966e-11
3.83784e-11
2.29408e-11
3.62348e-11
-1.40886e-11
1.32878e-11
3.92122e-11
-3.78083e-11
3.84828e-11
-1.77258e-11
1.70373e-11
-3.93002e-11
3.99678e-11
-2.14253e-11
2.07695e-11
-4.0655e-11
4.12032e-11
-2.60359e-11
2.55131e-11
-4.16573e-11
4.1887e-11
-3.1752e-11
3.15517e-11
-2.2138e-11
-2.02095e-11
2.1736e-11
2.03076e-11
-2.0838e-11
-2.48504e-11
2.03272e-11
2.52421e-11
-1.83516e-11
-3.00826e-11
1.74307e-11
3.09652e-11
-1.37246e-11
-3.52008e-11
1.21643e-11
3.6753e-11
-6.56455e-12
4.08778e-11
-3.87572e-11
4.44281e-12
5.05431e-11
1.03147e-14
5.0551e-11
3.11091e-14
5.05645e-11
5.24015e-14
5.05835e-11
7.45335e-14
5.06086e-11
9.78607e-14
5.06401e-11
1.2276e-13
5.06784e-11
1.49633e-13
5.07242e-11
1.7892e-13
5.07782e-11
2.11098e-13
5.08413e-11
2.467e-13
5.09144e-11
2.86316e-13
5.09989e-11
3.30612e-13
5.1096e-11
3.80337e-13
5.12073e-11
4.36342e-13
5.13347e-11
4.99597e-13
5.14802e-11
5.71215e-13
5.16461e-11
6.52468e-13
5.18354e-11
7.44834e-13
5.2051e-11
8.50011e-13
5.22967e-11
9.69991e-13
5.25766e-11
1.10707e-12
5.28954e-11
1.26399e-12
5.32588e-11
1.44386e-12
5.36729e-11
1.65061e-12
5.41453e-11
1.88842e-12
5.4684e-11
2.16318e-12
5.52998e-11
2.48036e-12
5.60023e-11
2.84946e-12
5.68074e-11
3.27694e-12
5.77267e-11
3.77958e-12
5.87837e-11
4.36307e-12
5.99915e-11
5.05975e-12
6.13853e-11
5.8687e-12
6.29801e-11
6.85624e-12
6.48255e-11
8.00021e-12
6.69434e-11
9.43933e-12
6.93925e-11
1.11006e-11
7.22196e-11
1.32665e-11
7.54651e-11
1.57719e-11
4.05739e-11
1.91464e-11
3.86627e-11
-1.23259e-11
1.1216e-11
4.17092e-11
-4.08379e-11
4.18978e-11
-1.6174e-11
1.50985e-11
-4.31431e-11
4.43161e-11
-1.98782e-11
1.8711e-11
-4.55804e-11
4.67928e-11
-2.46763e-11
2.34795e-11
-4.80061e-11
4.91048e-11
-3.09424e-11
2.986e-11
-2.65479e-11
-2.02241e-11
2.64383e-11
2.00471e-11
-2.64714e-11
-2.60813e-11
2.62504e-11
2.6193e-11
-2.50915e-11
-3.34927e-11
2.44183e-11
3.4127e-11
-2.00824e-11
-4.19644e-11
1.8153e-11
4.39166e-11
-1.03338e-11
5.20013e-11
-4.87338e-11
7.07496e-12
5.05626e-11
7.51246e-15
5.05711e-11
2.26577e-14
5.05853e-11
3.81662e-14
5.06056e-11
5.42868e-14
5.06322e-11
7.1279e-14
5.06655e-11
8.94174e-14
5.07062e-11
1.08996e-13
5.07547e-11
1.30335e-13
5.08121e-11
1.53784e-13
5.0879e-11
1.79732e-13
5.09568e-11
2.0861e-13
5.10465e-11
2.40904e-13
5.11497e-11
2.77165e-13
5.1268e-11
3.18014e-13
5.14034e-11
3.64164e-13
5.15582e-11
4.1643e-13
5.1735e-11
4.75748e-13
5.19366e-11
5.43203e-13
5.21666e-11
6.20048e-13
5.24289e-11
7.07751e-13
5.2728e-11
8.08004e-13
5.30692e-11
9.22846e-13
5.34585e-11
1.05458e-12
5.3903e-11
1.20612e-12
5.4411e-11
1.38059e-12
5.49916e-11
1.58241e-12
5.56567e-11
1.81564e-12
5.64182e-11
2.08748e-12
5.72933e-11
2.40278e-12
5.82973e-11
2.77435e-12
5.94556e-11
3.20651e-12
6.07888e-11
3.72406e-12
6.23342e-11
4.32672e-12
6.41207e-11
5.06517e-12
6.6202e-11
5.92478e-12
6.86239e-11
7.01017e-12
7.14585e-11
8.27487e-12
7.47879e-11
9.92686e-12
7.87004e-11
1.18715e-11
4.24572e-11
1.44867e-11
4.08877e-11
-9.96035e-12
8.56393e-12
4.38733e-11
-4.36652e-11
4.51314e-11
-1.3825e-11
1.23436e-11
-4.68335e-11
4.85713e-11
-1.72671e-11
1.55312e-11
-5.04969e-11
5.25118e-11
-2.18913e-11
1.98857e-11
-5.46772e-11
5.6932e-11
-2.8225e-11
2.59799e-11
-3.15149e-11
-1.8869e-11
3.18811e-11
1.82479e-11
-3.35411e-11
-2.57482e-11
3.39404e-11
2.52505e-11
-3.47901e-11
-3.59458e-11
3.59777e-11
1.85529e-11