/*--------------------------------*- C++ -*----------------------------------*\
| =========                 |                                                 |
| \\      /  F ield         | foam-extend: Open Source CFD                    |
|  \\    /   O peration     | Version:     4.0                                |
|   \\  /    A nd           | Web:         http://www.foam-extend.org         |
|    \\/     M anipulation  |                                                 |
\*---------------------------------------------------------------------------*/
FoamFile
{
    version     2.0;
    format      ascii;
    class       volVectorField;
    location    "0.0008";
    object      U;
}
// * * * * * * * * * * * * * * * * * * * * * * * * * * * * * * * * * * * * * //

dimensions      [0 1 -1 0 0 0 0];

internalField   nonuniform List<vector> 
28770
(
(0.00169612 4.94905e-08 0)
(0.00169591 1.49227e-07 0)
(0.00169551 2.51241e-07 0)
(0.00169489 3.57086e-07 0)
(0.00169406 4.6837e-07 0)
(0.00169299 5.86777e-07 0)
(0.00169167 7.1409e-07 0)
(0.00169008 8.52216e-07 0)
(0.0016882 1.00321e-06 0)
(0.001686 1.16929e-06 0)
(0.00168344 1.35289e-06 0)
(0.00168049 1.55667e-06 0)
(0.0016771 1.78353e-06 0)
(0.00167323 2.03669e-06 0)
(0.00166881 2.31964e-06 0)
(0.00166378 2.63626e-06 0)
(0.00165808 2.99079e-06 0)
(0.00165161 3.38786e-06 0)
(0.00164428 3.83256e-06 0)
(0.001636 4.33037e-06 0)
(0.00162665 4.8873e-06 0)
(0.0016161 5.50971e-06 0)
(0.00160421 6.20456e-06 0)
(0.00159083 6.97892e-06 0)
(0.00157579 7.84072e-06 0)
(0.0015589 8.79725e-06 0)
(0.00153995 9.85741e-06 0)
(0.00151874 1.10276e-05 0)
(0.00149502 1.23178e-05 0)
(0.00146855 1.37313e-05 0)
(0.00143905 1.528e-05 0)
(0.00140628 1.69596e-05 0)
(0.00136991 1.87857e-05 0)
(0.0013297 2.07402e-05 0)
(0.00128532 2.28444e-05 0)
(0.00123655 2.50588e-05 0)
(0.00118309 2.7412e-05 0)
(0.00112475 2.98371e-05 0)
(0.00106132 3.23673e-05 0)
(0.000992679 3.49098e-05 0)
(0.000918777 3.74921e-05 0)
(0.00083961 4.00089e-05 0)
(0.000755331 4.24675e-05 0)
(0.000666113 4.47679e-05 0)
(0.000572339 4.68928e-05 0)
(0.000474408 4.87584e-05 0)
(0.000372929 5.03329e-05 0)
(0.00026853 5.1555e-05 0)
(0.000162002 5.23955e-05 0)
(5.41442e-05 5.28216e-05 0)
(0.00169631 1.47737e-07 0)
(0.00169611 4.45467e-07 0)
(0.00169571 7.49998e-07 0)
(0.0016951 1.06597e-06 0)
(0.00169428 1.39819e-06 0)
(0.00169323 1.75167e-06 0)
(0.00169193 2.13176e-06 0)
(0.00169036 2.54414e-06 0)
(0.00168851 2.99495e-06 0)
(0.00168634 3.49084e-06 0)
(0.00168382 4.03907e-06 0)
(0.00168091 4.64758e-06 0)
(0.00167757 5.32507e-06 0)
(0.00167375 6.08111e-06 0)
(0.0016694 6.92622e-06 0)
(0.00166444 7.87197e-06 0)
(0.00165881 8.93105e-06 0)
(0.00165243 1.01174e-05 0)
(0.00164521 1.14461e-05 0)
(0.00163704 1.29337e-05 0)
(0.00162781 1.45983e-05 0)
(0.00161739 1.64588e-05 0)
(0.00160565 1.85362e-05 0)
(0.00159244 2.08518e-05 0)
(0.00157757 2.34294e-05 0)
(0.00156087 2.62908e-05 0)
(0.00154213 2.94631e-05 0)
(0.00152115 3.29652e-05 0)
(0.00149766 3.68278e-05 0)
(0.00147145 4.10602e-05 0)
(0.00144221 4.56987e-05 0)
(0.00140971 5.0731e-05 0)
(0.00137361 5.6203e-05 0)
(0.00133367 6.20636e-05 0)
(0.00128955 6.83721e-05 0)
(0.00124103 7.502e-05 0)
(0.00118777 8.20791e-05 0)
(0.0011296 8.93726e-05 0)
(0.00106628 9.69702e-05 0)
(0.000997697 0.000104635 0)
(0.00092377 0.000112405 0)
(0.000844482 0.000120011 0)
(0.000759991 0.000127431 0)
(0.000670446 0.000134399 0)
(0.000576246 0.000140832 0)
(0.000477777 0.000146492 0)
(0.000375668 0.000151269 0)
(0.000270549 0.000154981 0)
(0.000163242 0.000157535 0)
(5.45614e-05 0.00015883 0)
(0.0016967 2.43805e-07 0)
(0.0016965 7.35142e-07 0)
(0.00169612 1.23771e-06 0)
(0.00169553 1.75918e-06 0)
(0.00169473 2.30747e-06 0)
(0.0016937 2.8909e-06 0)
(0.00169244 3.51827e-06 0)
(0.00169092 4.19899e-06 0)
(0.00168913 4.9432e-06 0)
(0.00168702 5.7619e-06 0)
(0.00168457 6.66711e-06 0)
(0.00168175 7.67195e-06 0)
(0.00167851 8.79085e-06 0)
(0.0016748 1.00397e-05 0)
(0.00167056 1.14358e-05 0)
(0.00166575 1.29985e-05 0)
(0.00166028 1.47488e-05 0)
(0.00165407 1.67097e-05 0)
(0.00164704 1.89067e-05 0)
(0.00163909 2.1367e-05 0)
(0.0016301 2.41208e-05 0)
(0.00161996 2.71998e-05 0)
(0.00160852 3.06391e-05 0)
(0.00159562 3.44743e-05 0)
(0.00158111 3.87456e-05 0)
(0.0015648 4.34897e-05 0)
(0.00154649 4.87524e-05 0)
(0.00152595 5.45659e-05 0)
(0.00150294 6.09832e-05 0)
(0.00147723 6.80195e-05 0)
(0.00144852 7.57402e-05 0)
(0.00141656 8.41211e-05 0)
(0.001381 9.32501e-05 0)
(0.00134161 0.000103029 0)
(0.00129801 0.000113584 0)
(0.00124998 0.0001247 0)
(0.00119714 0.000136549 0)
(0.00113933 0.00014877 0)
(0.00107626 0.000161566 0)
(0.00100779 0.000174438 0)
(0.000933833 0.000187558 0)
(0.000854324 0.000200367 0)
(0.00076942 0.000212918 0)
(0.000679234 0.000224684 0)
(0.00058418 0.00023558 0)
(0.000484628 0.000245165 0)
(0.000381241 0.000253268 0)
(0.000274664 0.000259566 0)
(0.00016577 0.000263903 0)
(5.54122e-05 0.000266102 0)
(0.00169727 3.36281e-07 0)
(0.00169709 1.01399e-06 0)
(0.00169672 1.70721e-06 0)
(0.00169615 2.42652e-06 0)
(0.00169539 3.18288e-06 0)
(0.00169441 3.98777e-06 0)
(0.00169321 4.85335e-06 0)
(0.00169176 5.79264e-06 0)
(0.00169004 6.81965e-06 0)
(0.00168803 7.94962e-06 0)
(0.00168569 9.19916e-06 0)
(0.00168299 1.05865e-05 0)
(0.00167989 1.21315e-05 0)
(0.00167634 1.38563e-05 0)
(0.00167229 1.57851e-05 0)
(0.00166769 1.79444e-05 0)
(0.00166245 2.03637e-05 0)
(0.0016565 2.30751e-05 0)
(0.00164977 2.61139e-05 0)
(0.00164214 2.95183e-05 0)
(0.00163352 3.33305e-05 0)
(0.00162377 3.75951e-05 0)
(0.00161278 4.23613e-05 0)
(0.00160037 4.76792e-05 0)
(0.0015864 5.3606e-05 0)
(0.00157067 6.01934e-05 0)
(0.00155298 6.75076e-05 0)
(0.00153312 7.55935e-05 0)
(0.00151084 8.45294e-05 0)
(0.0014859 9.43358e-05 0)
(0.00145798 0.000105111 0)
(0.00142685 0.00011682 0)
(0.00139212 0.000129595 0)
(0.00135358 0.000143296 0)
(0.00131077 0.000158111 0)
(0.00126351 0.000173739 0)
(0.00121134 0.000190427 0)
(0.0011541 0.000207682 0)
(0.00109142 0.000225772 0)
(0.00102315 0.000244038 0)
(0.000949159 0.000262672 0)
(0.000869313 0.000280945 0)
(0.000783802 0.000298867 0)
(0.000692637 0.000315737 0)
(0.0005963 0.000331377 0)
(0.000495096 0.000345175 0)
(0.00038977 0.000356855 0)
(0.000280962 0.00036595 0)
(0.000169642 0.000372217 0)
(5.67151e-05 0.000375398 0)
(0.00169802 4.23785e-07 0)
(0.00169785 1.27785e-06 0)
(0.0016975 2.15149e-06 0)
(0.00169697 3.05806e-06 0)
(0.00169626 4.0114e-06 0)
(0.00169534 5.026e-06 0)
(0.00169421 6.11723e-06 0)
(0.00169285 7.30153e-06 0)
(0.00169124 8.59665e-06 0)
(0.00168935 1.00218e-05 0)
(0.00168715 1.15982e-05 0)
(0.00168462 1.33486e-05 0)
(0.00168171 1.52986e-05 0)
(0.00167837 1.74761e-05 0)
(0.00167457 1.99118e-05 0)
(0.00167023 2.26396e-05 0)
(0.0016653 2.5697e-05 0)
(0.0016597 2.91249e-05 0)
(0.00165335 3.29686e-05 0)
(0.00164616 3.7277e-05 0)
(0.00163801 4.21044e-05 0)
(0.0016288 4.75082e-05 0)
(0.00161839 5.35522e-05 0)
(0.00160663 6.03013e-05 0)
(0.00159337 6.78302e-05 0)
(0.00157842 7.62066e-05 0)
(0.00156156 8.55186e-05 0)
(0.00154262 9.58247e-05 0)
(0.00152129 0.000107233 0)
(0.00149739 0.000119768 0)
(0.00147054 0.000133573 0)
(0.00144053 0.000148588 0)
(0.00140693 0.000165029 0)
(0.00136954 0.000182665 0)
(0.00132782 0.000201836 0)
(0.00128162 0.000222033 0)
(0.00123038 0.000243772 0)
(0.00117394 0.000266165 0)
(0.00111186 0.000289894 0)
(0.00104392 0.000313717 0)
(0.000969971 0.000338301 0)
(0.000889766 0.000362283 0)
(0.000803487 0.000386016 0)
(0.000711067 0.000408301 0)
(0.000613005 0.000429089 0)
(0.000509575 0.000447424 0)
(0.000401583 0.000463005 0)
(0.000289706 0.000475144 0)
(0.000175021 0.000483527 0)
(5.85274e-05 0.000487784 0)
(0.00169894 5.0502e-07 0)
(0.00169878 1.52281e-06 0)
(0.00169846 2.56397e-06 0)
(0.00169797 3.64445e-06 0)
(0.00169732 4.78078e-06 0)
(0.00169647 5.99026e-06 0)
(0.00169544 7.29128e-06 0)
(0.00169419 8.70349e-06 0)
(0.0016927 1.02481e-05 0)
(0.00169096 1.19483e-05 0)
(0.00168895 1.38291e-05 0)
(0.00168661 1.59183e-05 0)
(0.00168393 1.82464e-05 0)
(0.00168086 2.08469e-05 0)
(0.00167735 2.37568e-05 0)
(0.00167335 2.70172e-05 0)
(0.0016688 3.06731e-05 0)
(0.00166362 3.47742e-05 0)
(0.00165775 3.93754e-05 0)
(0.00165109 4.45364e-05 0)
(0.00164354 5.0323e-05 0)
(0.00163498 5.68059e-05 0)
(0.0016253 6.40633e-05 0)
(0.00161435 7.21754e-05 0)
(0.00160197 8.1235e-05 0)
(0.00158799 9.13262e-05 0)
(0.00157219 0.000102561 0)
(0.00155439 0.000115011 0)
(0.00153428 0.000128819 0)
(0.00151169 0.000144013 0)
(0.0014862 0.000160786 0)
(0.00145765 0.00017906 0)
(0.00142549 0.000199123 0)
(0.00138962 0.000220692 0)
(0.00134932 0.000244206 0)
(0.00130457 0.000269054 0)
(0.00125455 0.000295864 0)
(0.00119926 0.00032362 0)
(0.00113798 0.000353062 0)
(0.00107055 0.000382846 0)
(0.000996712 0.000413579 0)
(0.000916033 0.000443834 0)
(0.000828861 0.000473795 0)
(0.000734811 0.000502142 0)
(0.000634607 0.000528625 0)
(0.000528305 0.000552111 0)
(0.000416912 0.000572105 0)
(0.000301057 0.000587738 0)
(0.000182018 0.000598547 0)
(6.08829e-05 0.000604044 0)
(0.0017 5.78775e-07 0)
(0.00169986 1.74523e-06 0)
(0.00169958 2.93852e-06 0)
(0.00169914 4.17697e-06 0)
(0.00169855 5.47956e-06 0)
(0.0016978 6.86621e-06 0)
(0.00169687 8.35804e-06 0)
(0.00169574 9.97768e-06 0)
(0.00169441 1.17496e-05 0)
(0.00169285 1.37003e-05 0)
(0.00169104 1.58591e-05 0)
(0.00168894 1.82577e-05 0)
(0.00168653 2.09315e-05 0)
(0.00168377 2.39193e-05 0)
(0.00168061 2.72642e-05 0)
(0.001677 3.10136e-05 0)
(0.0016729 3.52202e-05 0)
(0.00166822 3.9942e-05 0)
(0.00166291 4.52432e-05 0)
(0.00165688 5.11939e-05 0)
(0.00165003 5.78718e-05 0)
(0.00164225 6.53601e-05 0)
(0.00163344 7.37524e-05 0)
(0.00162345 8.31438e-05 0)
(0.00161212 9.3647e-05 0)
(0.0015993 0.000105362 0)
(0.00158476 0.000118429 0)
(0.00156833 0.000132934 0)
(0.00154969 0.000149059 0)
(0.00152869 0.000166832 0)
(0.00150485 0.000186523 0)
(0.00147807 0.000208002 0)
(0.00144769 0.000231718 0)
(0.00141368 0.000257202 0)
(0.00137517 0.000285245 0)
(0.0013322 0.000314761 0)
(0.00128381 0.000347088 0)
(0.00122995 0.00038024 0)
(0.00116985 0.00041617 0)
(0.00110318 0.000451995 0)
(0.00102969 0.000489856 0)
(0.000948727 0.000526643 0)
(0.000860581 0.000563693 0)
(0.000764755 0.000598557 0)
(0.000661933 0.000631472 0)
(0.00055215 0.000660652 0)
(0.000436469 0.000685651 0)
(0.000315596 0.00070522 0)
(0.000190988 0.000718796 0)
(6.39106e-05 0.000725706 0)
(0.00170121 6.4393e-07 0)
(0.00170109 1.94172e-06 0)
(0.00170084 3.26943e-06 0)
(0.00170046 4.64752e-06 0)
(0.00169995 6.09715e-06 0)
(0.00169929 7.64057e-06 0)
(0.00169848 9.30135e-06 0)
(0.00169751 1.11048e-05 0)
(0.00169635 1.30783e-05 0)
(0.00169499 1.52516e-05 0)
(0.00169341 1.76574e-05 0)
(0.00169158 2.03315e-05 0)
(0.00168948 2.33134e-05 0)
(0.00168706 2.66471e-05 0)
(0.0016843 3.0381e-05 0)
(0.00168114 3.45689e-05 0)
(0.00167754 3.92703e-05 0)
(0.00167344 4.45512e-05 0)
(0.00166877 5.04846e-05 0)
(0.00166345 5.71507e-05 0)
(0.00165741 6.46387e-05 0)
(0.00165053 7.30445e-05 0)
(0.00164272 8.24765e-05 0)
(0.00163383 9.30453e-05 0)
(0.00162373 0.000104883 0)
(0.00161226 0.000118109 0)
(0.00159919 0.000132888 0)
(0.00158438 0.000149325 0)
(0.00156747 0.000167642 0)
(0.00154837 0.000187877 0)
(0.00152651 0.000210361 0)
(0.00150191 0.000234955 0)
(0.00147366 0.000262198 0)
(0.00144204 0.000291583 0)
(0.00140568 0.000324008 0)
(0.00136513 0.00035835 0)
(0.00131867 0.000395984 0)
(0.0012669 0.000434995 0)
(0.00120824 0.000477129 0)
(0.0011427 0.000519855 0)
(0.00106981 0.000564704 0)
(0.000988333 0.000609172 0)
(0.000899278 0.000653803 0)
(0.000801179 0.000696431 0)
(0.000695409 0.000736681 0)
(0.000581356 0.000772709 0)
(0.000460551 0.000803635 0)
(0.000333512 0.00082799 0)
(0.000202078 0.000844913 0)
(6.76486e-05 0.000853552 0)
(0.00170254 6.99499e-07 0)
(0.00170243 2.10931e-06 0)
(0.00170223 3.55171e-06 0)
(0.00170191 5.04898e-06 0)
(0.00170148 6.6242e-06 0)
(0.00170094 8.3016e-06 0)
(0.00170026 1.01069e-05 0)
(0.00169944 1.20678e-05 0)
(0.00169847 1.42142e-05 0)
(0.00169734 1.65785e-05 0)
(0.00169601 1.91967e-05 0)
(0.00169448 2.2108e-05 0)
(0.00169272 2.5356e-05 0)
(0.00169069 2.89888e-05 0)
(0.00168837 3.306e-05 0)
(0.00168571 3.76289e-05 0)
(0.00168267 4.27617e-05 0)
(0.0016792 4.85314e-05 0)
(0.00167525 5.50198e-05 0)
(0.00167073 6.23163e-05 0)
(0.00166559 7.05214e-05 0)
(0.00165972 7.97432e-05 0)
(0.00165302 9.0105e-05 0)
(0.00164539 0.000101733 0)
(0.00163666 0.00011478 0)
(0.00162672 0.000129383 0)
(0.00161532 0.00014574 0)
(0.00160236 0.000163969 0)
(0.00158744 0.000184349 0)
(0.00157052 0.000206908 0)
(0.00155095 0.0002321 0)
(0.00152883 0.000259684 0)
(0.00150314 0.000290496 0)
(0.0014742 0.000323663 0)
(0.00144055 0.000360819 0)
(0.00140268 0.000399797 0)
(0.00135886 0.00044369 0)
(0.0013094 0.000488175 0)
(0.00125294 0.000538331 0)
(0.00118893 0.0005874 0)
(0.00111714 0.000641576 0)
(0.00103597 0.000693612 0)
(0.00094602 0.000747434 0)
(0.000845905 0.000798279 0)
(0.000736621 0.000847081 0)
(0.000617708 0.000890761 0)
(0.000490598 0.000928589 0)
(0.000356013 0.000958455 0)
(0.000216016 0.000979305 0)
(7.23694e-05 0.000989963 0)
(0.00170396 7.4463e-07 0)
(0.00170388 2.24543e-06 0)
(0.00170372 3.78103e-06 0)
(0.00170347 5.37519e-06 0)
(0.00170313 7.05259e-06 0)
(0.0017027 8.83913e-06 0)
(0.00170217 1.07623e-05 0)
(0.00170153 1.28518e-05 0)
(0.00170076 1.51395e-05 0)
(0.00169987 1.76605e-05 0)
(0.00169882 2.04531e-05 0)
(0.00169761 2.35598e-05 0)
(0.00169621 2.70272e-05 0)
(0.0016946 3.09076e-05 0)
(0.00169276 3.52588e-05 0)
(0.00169064 4.01452e-05 0)
(0.00168822 4.56386e-05 0)
(0.00168544 5.18189e-05 0)
(0.00168226 5.87754e-05 0)
(0.00167863 6.66066e-05 0)
(0.00167447 7.54231e-05 0)
(0.00166971 8.5345e-05 0)
(0.00166425 9.65098e-05 0)
(0.001658 0.000109059 0)
(0.0016508 0.000123166 0)
(0.00164257 0.000138987 0)
(0.00163305 0.000156748 0)
(0.00162218 0.000176591 0)
(0.00160952 0.000198838 0)
(0.00159513 0.000223542 0)
(0.00157819 0.000251212 0)
(0.00155909 0.000281645 0)
(0.00153631 0.000315729 0)
(0.00151089 0.000352675 0)
(0.00148023 0.000394077 0)
(0.00144628 0.000438061 0)
(0.0014052 0.000487287 0)
(0.00135957 0.000538352 0)
(0.0013054 0.000594935 0)
(0.00124379 0.00065242 0)
(0.00117381 0.000714194 0)
(0.00109199 0.000776264 0)
(0.00100177 0.000839581 0)
(0.000898751 0.000901033 0)
(0.000785965 0.000959833 0)
(0.000661166 0.00101327 0)
(0.000526836 0.00105965 0)
(0.000383171 0.00109662 0)
(0.00023293 0.00112248 0)
(7.80855e-05 0.00113576 0)
(0.00170546 7.78612e-07 0)
(0.00170541 2.34794e-06 0)
(0.00170529 3.95375e-06 0)
(0.00170511 5.621e-06 0)
(0.00170487 7.37557e-06 0)
(0.00170457 9.24464e-06 0)
(0.00170419 1.12572e-05 0)
(0.00170373 1.34442e-05 0)
(0.00170318 1.58396e-05 0)
(0.00170254 1.84801e-05 0)
(0.00170179 2.14063e-05 0)
(0.00170092 2.4663e-05 0)
(0.00169991 2.82998e-05 0)
(0.00169875 3.23719e-05 0)
(0.00169741 3.69409e-05 0)
(0.00169587 4.20755e-05 0)
(0.0016941 4.78525e-05 0)
(0.00169207 5.43577e-05 0)
(0.00168973 6.16871e-05 0)
(0.00168704 6.99472e-05 0)
(0.00168394 7.92583e-05 0)
(0.00168037 8.97514e-05 0)
(0.00167624 0.000101578 0)
(0.00167149 0.000114894 0)
(0.00166597 0.000129894 0)
(0.0016596 0.000146752 0)
(0.00165214 0.000165728 0)
(0.00164357 0.000186983 0)
(0.00163341 0.000210902 0)
(0.0016218 0.000237528 0)
(0.00160784 0.000267532 0)
(0.001592 0.000300564 0)
(0.00157269 0.000337973 0)
(0.00155092 0.000378345 0)
(0.00152415 0.000424621 0)
(0.00149395 0.000472878 0)
(0.00145706 0.000529443 0)
(0.0014148 0.000585409 0)
(0.00136464 0.000652855 0)
(0.0013057 0.000715843 0)
(0.00123841 0.000791424 0)
(0.00115874 0.000862053 0)
(0.00106819 0.000937625 0)
(0.000963653 0.00100982 0)
(0.000846516 0.00108043 0)
(0.000715449 0.00114481 0)
(0.000572211 0.00120129 0)
(0.00041753 0.00124654 0)
(0.000254346 0.00127839 0)
(8.53751e-05 0.00129479 0)
(0.00170702 8.00906e-07 0)
(0.00170699 2.4152e-06 0)
(0.00170692 4.06715e-06 0)
(0.00170682 5.78249e-06 0)
(0.00170668 7.58795e-06 0)
(0.0017065 9.51162e-06 0)
(0.00170628 1.15834e-05 0)
(0.00170601 1.38356e-05 0)
(0.0017057 1.6303e-05 0)
(0.00170532 1.90239e-05 0)
(0.00170488 2.20405e-05 0)
(0.00170436 2.53992e-05 0)
(0.00170376 2.9152e-05 0)
(0.00170307 3.33564e-05 0)
(0.00170226 3.80769e-05 0)
(0.00170132 4.33857e-05 0)
(0.00170024 4.93637e-05 0)
(0.00169899 5.61012e-05 0)
(0.00169753 6.37003e-05 0)
(0.00169584 7.22743e-05 0)
(0.00169386 8.19518e-05 0)
(0.00169156 9.2874e-05 0)
(0.00168887 0.000105204 0)
(0.00168572 0.000119113 0)
(0.00168199 0.000134813 0)
(0.00167766 0.000152499 0)
(0.00167244 0.000172457 0)
(0.00166641 0.000194881 0)
(0.00165901 0.000220186 0)
(0.00165058 0.000248479 0)
(0.00163991 0.000280445 0)
(0.00162806 0.000315876 0)
(0.00161247 0.000356034 0)
(0.00159574 0.000399899 0)
(0.00157279 0.000449921 0)
(0.00154891 0.000503331 0)
(0.00151539 0.000564712 0)
(0.00148041 0.000628317 0)
(0.00143311 0.00070142 0)
(0.00137947 0.000775398 0)
(0.00131697 0.000857435 0)
(0.00123514 0.000942076 0)
(0.00114645 0.00102988 0)
(0.00103858 0.00111726 0)
(0.000918142 0.00120223 0)
(0.000779505 0.00128119 0)
(0.000626446 0.00135088 0)
(0.000458658 0.0014074 0)
(0.000280173 0.00144737 0)
(9.415e-05 0.00146808 0)
(0.00170861 8.1114e-07 0)
(0.00170861 2.4461e-06 0)
(0.00170859 4.11932e-06 0)
(0.00170856 5.85694e-06 0)
(0.00170853 7.68614e-06 0)
(0.00170848 9.6355e-06 0)
(0.00170842 1.17355e-05 0)
(0.00170835 1.40189e-05 0)
(0.00170826 1.65215e-05 0)
(0.00170816 1.92822e-05 0)
(0.00170803 2.23441e-05 0)
(0.00170788 2.5755e-05 0)
(0.0017077 2.9568e-05 0)
(0.00170749 3.38425e-05 0)
(0.00170723 3.8645e-05 0)
(0.00170692 4.40499e-05 0)
(0.00170655 5.01413e-05 0)
(0.0017061 5.70133e-05 0)
(0.00170556 6.47722e-05 0)
(0.00170491 7.35371e-05 0)
(0.00170411 8.34435e-05 0)
(0.00170314 9.4641e-05 0)
(0.00170194 0.000107303 0)
(0.00170048 0.000121616 0)
(0.00169866 0.000137805 0)
(0.00169646 0.000156088 0)
(0.00169364 0.000176776 0)
(0.00169031 0.000200092 0)
(0.0016859 0.000226504 0)
(0.0016808 0.000256132 0)
(0.00167383 0.000289808 0)
(0.00166602 0.000327209 0)
(0.00165497 0.000370103 0)
(0.00164285 0.000416745 0)
(0.00162543 0.000471402 0)
(0.00160635 0.000528275 0)
(0.00157944 0.000598129 0)
(0.00154867 0.000664787 0)
(0.00150866 0.00075401 0)
(0.00145847 0.000828465 0)
(0.00140162 0.00093513 0)
(0.0013276 0.00102907 0)
(0.00123973 0.00113188 0)
(0.00113241 0.00123395 0)
(0.00100703 0.00133537 0)
(0.00086101 0.00143112 0)
(0.000695796 0.00151633 0)
(0.000512009 0.00158619 0)
(0.000313762 0.0016359 0)
(0.000105654 0.00166182 0)
(0.00171021 8.0912e-07 0)
(0.00171023 2.44005e-06 0)
(0.00171026 4.10926e-06 0)
(0.00171031 5.84292e-06 0)
(0.00171038 7.66824e-06 0)
(0.00171047 9.61388e-06 0)
(0.00171057 1.17104e-05 0)
(0.0017107 1.39907e-05 0)
(0.00171085 1.64906e-05 0)
(0.00171102 1.92494e-05 0)
(0.00171121 2.23106e-05 0)
(0.00171143 2.57223e-05 0)
(0.00171168 2.95382e-05 0)
(0.00171195 3.38186e-05 0)
(0.00171225 3.8631e-05 0)
(0.00171258 4.40512e-05 0)
(0.00171294 5.0165e-05 0)
(0.00171331 5.70688e-05 0)
(0.00171371 6.48722e-05 0)
(0.00171412 7.36981e-05 0)
(0.00171453 8.3687e-05 0)
(0.00171493 9.49955e-05 0)
(0.00171528 0.000107805 0)
(0.00171559 0.000122313 0)
(0.00171575 0.000138758 0)
(0.00171582 0.000157381 0)
(0.00171553 0.000178505 0)
(0.00171511 0.0002024 0)
(0.00171388 0.00022954 0)
(0.00171257 0.000260153 0)
(0.00170951 0.000295016 0)
(0.00170668 0.000334096 0)
(0.00170014 0.000378856 0)
(0.00169492 0.000428389 0)
(0.001682 0.000485798 0)
(0.001673 0.000547752 0)
(0.00164906 0.000621139 0)
(0.00163305 0.000696893 0)
(0.00159338 0.000789146 0)
(0.00155682 0.000879443 0)
(0.00151339 0.000984231 0)
(0.00142779 0.00109896 0)
(0.00134706 0.00121955 0)
(0.00123784 0.00134359 0)
(0.00111121 0.00146674 0)
(0.000956693 0.00158471 0)
(0.000778283 0.00169169 0)
(0.000575732 0.0017807 0)
(0.000354229 0.0018447 0)
(0.000119533 0.00187827 0)
(0.00171179 7.94839e-07 0)
(0.00171184 2.39702e-06 0)
(0.00171192 4.03692e-06 0)
(0.00171205 5.74034e-06 0)
(0.00171222 7.53411e-06 0)
(0.00171244 9.4465e-06 0)
(0.00171271 1.15077e-05 0)
(0.00171303 1.37502e-05 0)
(0.00171341 1.62095e-05 0)
(0.00171386 1.89245e-05 0)
(0.00171437 2.19384e-05 0)
(0.00171496 2.5299e-05 0)
(0.00171563 2.90598e-05 0)
(0.00171639 3.32808e-05 0)
(0.00171725 3.80296e-05 0)
(0.00171822 4.33823e-05 0)
(0.0017193 4.94251e-05 0)
(0.0017205 5.62554e-05 0)
(0.00172185 6.3984e-05 0)
(0.00172333 7.2736e-05 0)
(0.00172496 8.26548e-05 0)
(0.00172675 9.39017e-05 0)
(0.00172868 0.000106663 0)
(0.00173079 0.000121147 0)
(0.00173299 0.000137599 0)
(0.00173538 0.00015628 0)
(0.00173772 0.000177525 0)
(0.00174028 0.000201644 0)
(0.00174244 0.000229124 0)
(0.00174492 0.00026027 0)
(0.00174623 0.00029588 0)
(0.00174811 0.000336033 0)
(0.00174729 0.00038231 0)
(0.00174756 0.000433757 0)
(0.00174231 0.00049431 0)
(0.00173886 0.00055903 0)
(0.00172547 0.000639985 0)
(0.00171317 0.000716728 0)
(0.0016874 0.000833109 0)
(0.00164949 0.000903799 0)
(0.00161656 0.00106591 0)
(0.00155801 0.00119266 0)
(0.00147925 0.00132073 0)
(0.00137445 0.00146629 0)
(0.00124313 0.00161268 0)
(0.00108127 0.00175858 0)
(0.000887698 0.00189081 0)
(0.000661824 0.00200245 0)
(0.000409299 0.00208348 0)
(0.000138526 0.00212645 0)
(0.00171334 7.68476e-07 0)
(0.0017134 2.31755e-06 0)
(0.00171354 3.9032e-06 0)
(0.00171374 5.55046e-06 0)
(0.00171401 7.28536e-06 0)
(0.00171436 9.13536e-06 0)
(0.00171479 1.11298e-05 0)
(0.0017153 1.33002e-05 0)
(0.00171592 1.56813e-05 0)
(0.00171663 1.83109e-05 0)
(0.00171746 2.12312e-05 0)
(0.00171841 2.44889e-05 0)
(0.0017195 2.81365e-05 0)
(0.00172074 3.22329e-05 0)
(0.00172214 3.68446e-05 0)
(0.00172374 4.20466e-05 0)
(0.00172554 4.79242e-05 0)
(0.00172757 5.4574e-05 0)
(0.00172985 6.21063e-05 0)
(0.0017324 7.06466e-05 0)
(0.00173525 8.03382e-05 0)
(0.00173843 9.13449e-05 0)
(0.00174196 0.000103855 0)
(0.00174588 0.000118082 0)
(0.00175015 0.000134277 0)
(0.00175491 0.000152717 0)
(0.00175995 0.000173739 0)
(0.00176563 0.0001977 0)
(0.00177129 0.000225068 0)
(0.00177793 0.000256277 0)
(0.00178369 0.000292025 0)
(0.00179131 0.000332738 0)
(0.00179583 0.000379625 0)
(0.00180459 0.000432706 0)
(0.00180466 0.000494631 0)
(0.00181564 0.000563354 0)
(0.00180347 0.000646532 0)
(0.00182215 0.000733076 0)
(0.00177656 0.000850851 0)
(0.00182921 0.000948516 0)
(0.00178755 0.00106348 0)
(0.00163288 0.00105913 0)
(0.00159242 0.00121643 0)
(0.00151505 0.0013895 0)
(0.00140298 0.00156991 0)
(0.00125014 0.00175409 0)
(0.00105357 0.00193494 0)
(0.000816013 0.0020997 0)
(0.000542135 0.00223326 0)
(0.000240815 0.00232321 0)
(0.00171482 7.30394e-07 0)
(0.00171491 2.20274e-06 0)
(0.00171509 3.70994e-06 0)
(0.00171536 5.27588e-06 0)
(0.00171573 6.92538e-06 0)
(0.0017162 8.68464e-06 0)
(0.00171679 1.05817e-05 0)
(0.00171749 1.26467e-05 0)
(0.00171832 1.49128e-05 0)
(0.00171929 1.74164e-05 0)
(0.00172042 2.01978e-05 0)
(0.00172172 2.3302e-05 0)
(0.00172321 2.67794e-05 0)
(0.00172492 3.06869e-05 0)
(0.00172686 3.50887e-05 0)
(0.00172906 4.00576e-05 0)
(0.00173156 4.56763e-05 0)
(0.00173439 5.20391e-05 0)
(0.00173758 5.92537e-05 0)
(0.00174118 6.74433e-05 0)
(0.00174523 7.6749e-05 0)
(0.00174978 8.73337e-05 0)
(0.00175486 9.93834e-05 0)
(0.00176058 0.000113115 0)
(0.00176691 0.000128776 0)
(0.00177402 0.000146658 0)
(0.00178177 0.000167088 0)
(0.00179054 0.000190471 0)
(0.0017998 0.000217231 0)
(0.00181048 0.000247949 0)
(0.0018211 0.000283137 0)
(0.00183389 0.000323713 0)
(0.00184518 0.00037013 0)
(0.00186017 0.000424112 0)
(0.00187023 0.000485302 0)
(0.0018876 0.00055798 0)
(0.00189166 0.000637509 0)
(0.00191324 0.000738187 0)
(0.00189835 0.000834765 0)
(0.0019375 0.000986871 0)
(0.00198259 0.00108122 0)
(0.00178429 0.00115744 0)
(0.00175732 0.00133656 0)
(0.00169362 0.00153465 0)
(0.00158962 0.0017462 0)
(0.00143909 0.00196247 0)
(0.00122538 0.00218582 0)
(0.000960156 0.00239064 0)
(0.00064378 0.00255536 0)
(0.000286716 0.00266093 0)
(0.00171621 6.81147e-07 0)
(0.00171632 2.05425e-06 0)
(0.00171655 3.45994e-06 0)
(0.00171689 4.92057e-06 0)
(0.00171735 6.45935e-06 0)
(0.00171794 8.10083e-06 0)
(0.00171867 9.87122e-06 0)
(0.00171955 1.17989e-05 0)
(0.00172059 1.39149e-05 0)
(0.0017218 1.62535e-05 0)
(0.00172322 1.88524e-05 0)
(0.00172485 2.17543e-05 0)
(0.00172673 2.50066e-05 0)
(0.00172887 2.86632e-05 0)
(0.00173132 3.27847e-05 0)
(0.00173411 3.74404e-05 0)
(0.00173727 4.27091e-05 0)
(0.00174086 4.86806e-05 0)
(0.00174493 5.54582e-05 0)
(0.00174953 6.31604e-05 0)
(0.00175473 7.19231e-05 0)
(0.0017606 8.19048e-05 0)
(0.0017672 9.32859e-05 0)
(0.00177466 0.000106281 0)
(0.00178299 0.00012113 0)
(0.00179243 0.000138131 0)
(0.00180285 0.000157599 0)
(0.00181473 0.000179964 0)
(0.00182757 0.000205629 0)
(0.00184246 0.000235244 0)
(0.00185787 0.000269281 0)
(0.00187649 0.000308805 0)
(0.00189414 0.00035423 0)
(0.00191736 0.000407483 0)
(0.00193574 0.000468424 0)
(0.00196468 0.000541072 0)
(0.00197992 0.000622741 0)
(0.00201529 0.000723905 0)
(0.00202006 0.000830269 0)
(0.00205721 0.000978349 0)
(0.00216413 0.00108008 0)
(0.00195783 0.00122018 0)
(0.00195071 0.00142112 0)
(0.00190668 0.00164973 0)
(0.00181923 0.00190082 0)
(0.00168938 0.0021463 0)
(0.00144582 0.00244001 0)
(0.00115184 0.00270956 0)
(0.000782813 0.00292763 0)
(0.000349961 0.00306576 0)
(0.0017175 6.2145e-07 0)
(0.00171763 1.87423e-06 0)
(0.00171789 3.15683e-06 0)
(0.0017183 4.48967e-06 0)
(0.00171884 5.89402e-06 0)
(0.00171954 7.39234e-06 0)
(0.00172041 9.00866e-06 0)
(0.00172145 1.0769e-05 0)
(0.00172268 1.27018e-05 0)
(0.00172413 1.48386e-05 0)
(0.00172581 1.72141e-05 0)
(0.00172775 1.98676e-05 0)
(0.00172998 2.28428e-05 0)
(0.00173253 2.61894e-05 0)
(0.00173545 2.99638e-05 0)
(0.00173878 3.423e-05 0)
(0.00174257 3.90613e-05 0)
(0.00174688 4.45417e-05 0)
(0.00175176 5.07673e-05 0)
(0.0017573 5.78497e-05 0)
(0.00176358 6.59165e-05 0)
(0.0017707 7.5118e-05 0)
(0.00177873 8.56245e-05 0)
(0.00178784 9.7643e-05 0)
(0.00179809 0.0001114 0)
(0.00180973 0.00012719 0)
(0.00182273 0.000145308 0)
(0.00183757 0.000166201 0)
(0.00185393 0.000190215 0)
(0.0018728 0.000218101 0)
(0.00189313 0.00025015 0)
(0.00191707 0.000287797 0)
(0.0019418 0.000330848 0)
(0.00197199 0.000382456 0)
(0.00200104 0.000440526 0)
(0.0020387 0.000512797 0)
(0.00207069 0.000590967 0)
(0.00211644 0.000695165 0)
(0.00214749 0.000799049 0)
(0.00219783 0.000954354 0)
(0.00233498 0.00105611 0)
(0.00214992 0.00124455 0)
(0.00217189 0.0014671 0)
(0.00215652 0.0017314 0)
(0.00208763 0.00204856 0)
(0.00199779 0.00245428 0)
(0.00175759 0.00282475 0)
(0.00140632 0.00318201 0)
(0.000934981 0.0034821 0)
(0.000361626 0.00366566 0)
(0.00171865 5.52208e-07 0)
(0.0017188 1.66542e-06 0)
(0.00171911 2.80519e-06 0)
(0.00171957 3.98971e-06 0)
(0.00172019 5.23793e-06 0)
(0.00172099 6.56986e-06 0)
(0.00172197 8.00695e-06 0)
(0.00172316 9.57244e-06 0)
(0.00172457 1.12917e-05 0)
(0.00172622 1.31929e-05 0)
(0.00172814 1.53073e-05 0)
(0.00173036 1.76698e-05 0)
(0.00173292 2.03199e-05 0)
(0.00173584 2.33022e-05 0)
(0.00173919 2.66674e-05 0)
(0.00174301 3.04732e-05 0)
(0.00174737 3.4786e-05 0)
(0.00175233 3.96817e-05 0)
(0.00175796 4.52478e-05 0)
(0.00176437 5.1586e-05 0)
(0.00177164 5.88128e-05 0)
(0.0017799 6.70664e-05 0)
(0.00178926 7.65033e-05 0)
(0.0017999 8.73161e-05 0)
(0.00181193 9.9714e-05 0)
(0.00182563 0.000113977 0)
(0.00184105 0.000130377 0)
(0.0018587 0.000149346 0)
(0.00187839 0.000171212 0)
(0.00190115 0.000196702 0)
(0.00192612 0.000226121 0)
(0.00195551 0.000260823 0)
(0.00198682 0.000300812 0)
(0.00202476 0.000348845 0)
(0.00206337 0.000403793 0)
(0.00211198 0.000471699 0)
(0.00215849 0.000547957 0)
(0.00221904 0.000646536 0)
(0.00227385 0.000753177 0)
(0.0023427 0.000900643 0)
(0.00250753 0.00100211 0)
(0.00235909 0.00122688 0)
(0.00242051 0.00146593 0)
(0.00245144 0.00175663 0)
(0.00243729 0.00210394 0)
(0.00241508 0.00260893 0)
(0.0022045 0.0030971 0)
(0.00183105 0.00360558 0)
(0.00126461 0.00406123 0)
(0.000516315 0.00435458 0)
(0.00171967 4.74449e-07 0)
(0.00171983 1.43092e-06 0)
(0.00172017 2.41025e-06 0)
(0.00172068 3.42811e-06 0)
(0.00172137 4.50082e-06 0)
(0.00172225 5.64562e-06 0)
(0.00172335 6.881e-06 0)
(0.00172466 8.22701e-06 0)
(0.00172623 9.70558e-06 0)
(0.00172806 1.1341e-05 0)
(0.00173019 1.31602e-05 0)
(0.00173266 1.51937e-05 0)
(0.00173549 1.74754e-05 0)
(0.00173875 2.00442e-05 0)
(0.00174248 2.2944e-05 0)
(0.00174673 2.62253e-05 0)
(0.00175159 2.99457e-05 0)
(0.00175712 3.41717e-05 0)
(0.00176342 3.89799e-05 0)
(0.00177059 4.44596e-05 0)
(0.00177874 5.07133e-05 0)
(0.00178802 5.78634e-05 0)
(0.00179856 6.6048e-05 0)
(0.00181057 7.54399e-05 0)
(0.0018242 8.62238e-05 0)
(0.00183975 9.86554e-05 0)
(0.00185736 0.000112973 0)
(0.00187755 0.000129584 0)
(0.0019003 0.000148763 0)
(0.00192657 0.000171227 0)
(0.00195592 0.000197185 0)
(0.0019902 0.000228042 0)
(0.00202799 0.000263589 0)
(0.00207282 0.000306843 0)
(0.00212133 0.000356185 0)
(0.00217986 0.00041837 0)
(0.00224188 0.000488015 0)
(0.00231738 0.000580014 0)
(0.00239631 0.000680803 0)
(0.00249004 0.000820427 0)
(0.0026745 0.000912971 0)
(0.00257891 0.00116293 0)
(0.00269021 0.00141121 0)
(0.00278378 0.00172408 0)
(0.00284561 0.00211722 0)
(0.00292157 0.00270068 0)
(0.00279197 0.00333877 0)
(0.00243856 0.0040656 0)
(0.00176591 0.00478887 0)
(0.000751238 0.00530072 0)
(0.00172052 3.89376e-07 0)
(0.0017207 1.17436e-06 0)
(0.00172106 1.97813e-06 0)
(0.00172161 2.81357e-06 0)
(0.00172236 3.69411e-06 0)
(0.00172332 4.63393e-06 0)
(0.0017245 5.64826e-06 0)
(0.00172593 6.75358e-06 0)
(0.00172762 7.96798e-06 0)
(0.00172961 9.31148e-06 0)
(0.00173192 1.08064e-05 0)
(0.00173459 1.24777e-05 0)
(0.00173767 1.43536e-05 0)
(0.0017412 1.64662e-05 0)
(0.00174525 1.88521e-05 0)
(0.00174987 2.15529e-05 0)
(0.00175515 2.46166e-05 0)
(0.00176117 2.80986e-05 0)
(0.00176803 3.20627e-05 0)
(0.00177585 3.65837e-05 0)
(0.00178476 4.17474e-05 0)
(0.00179491 4.76568e-05 0)
(0.00180647 5.44282e-05 0)
(0.00181965 6.2208e-05 0)
(0.00183466 7.11528e-05 0)
(0.00185182 8.14813e-05 0)
(0.00187133 9.33979e-05 0)
(0.00189374 0.000107253 0)
(0.00191916 0.00012329 0)
(0.00194856 0.000142123 0)
(0.00198175 0.00016397 0)
(0.00202053 0.000190003 0)
(0.00206398 0.000220213 0)
(0.00211542 0.000256979 0)
(0.00217257 0.000299532 0)
(0.00224107 0.000352849 0)
(0.00231677 0.000414251 0)
(0.00240781 0.000494008 0)