/*--------------------------------*- C++ -*----------------------------------*\
| =========                 |                                                 |
| \\      /  F ield         | foam-extend: Open Source CFD                    |
|  \\    /   O peration     | Version:     4.0                                |
|   \\  /    A nd           | Web:         http://www.foam-extend.org         |
|    \\/     M anipulation  |                                                 |
\*---------------------------------------------------------------------------*/
FoamFile
{
    version     2.0;
    format      ascii;
    class       volScalarField;
    location    "0.0014";
    object      k;
}
// * * * * * * * * * * * * * * * * * * * * * * * * * * * * * * * * * * * * * //

dimensions      [0 2 -2 0 0 0 0];

internalField   nonuniform List<scalar> 
28770
(
1.68612e-07
4.05456e-07
6.04743e-07
7.84712e-07
9.4821e-07
1.09849e-06
1.23658e-06
1.36312e-06
1.47847e-06
1.58286e-06
1.67639e-06
1.75916e-06
1.83122e-06
1.89259e-06
1.94331e-06
1.9834e-06
2.01288e-06
2.03177e-06
2.04011e-06
2.03793e-06
2.0253e-06
2.00228e-06
1.96902e-06
1.92571e-06
1.87259e-06
1.81e-06
1.73839e-06
1.65831e-06
1.57043e-06
1.47558e-06
1.37469e-06
1.26887e-06
1.15933e-06
1.04743e-06
9.34606e-07
8.2239e-07
7.12352e-07
6.06069e-07
5.05083e-07
4.10853e-07
3.24707e-07
2.4779e-07
1.81013e-07
1.24998e-07
8.00314e-08
4.60158e-08
2.24176e-08
8.19758e-09
1.66607e-09
1.10978e-10
5.04074e-06
1.21094e-05
1.80238e-05
2.33708e-05
2.82346e-05
3.27044e-05
3.68123e-05
4.05768e-05
4.40087e-05
4.71141e-05
4.98968e-05
5.23591e-05
5.45025e-05
5.63281e-05
5.78367e-05
5.90289e-05
5.99055e-05
6.0467e-05
6.07143e-05
6.06486e-05
6.02717e-05
5.95858e-05
5.85951e-05
5.73051e-05
5.57233e-05
5.38598e-05
5.17276e-05
4.93434e-05
4.67271e-05
4.39032e-05
4.08998e-05
3.77495e-05
3.44887e-05
3.11576e-05
2.77992e-05
2.44589e-05
2.11837e-05
1.80203e-05
1.50147e-05
1.22104e-05
9.64682e-06
7.35814e-06
5.37143e-06
3.70526e-06
2.36817e-06
1.35726e-06
6.56727e-07
2.35766e-07
4.44383e-08
1.71582e-09
3.34088e-05
8.37997e-05
0.000124873
0.000161659
0.000195152
0.000225931
0.000254226
0.000280162
0.000303807
0.000325204
0.000344377
0.000361341
0.000376105
0.000388678
0.000399065
0.00040727
0.000413297
0.000417151
0.000418838
0.000418365
0.000415745
0.000410993
0.000404138
0.000395216
0.000384282
0.000371403
0.00035667
0.000340197
0.000322123
0.000302616
0.000281871
0.000260113
0.000237593
0.000214589
0.000191399
0.000168336
0.000145725
0.000123888
0.000103145
8.3794e-05
6.61093e-05
5.03264e-05
3.6633e-05
2.51582e-05
1.59622e-05
9.0275e-06
4.25152e-06
1.43638e-06
2.39119e-07
8.43563e-09
0.000110932
0.000292484
0.000440112
0.00057015
0.000687905
0.000795908
0.000895157
0.000986125
0.00106906
0.00114412
0.00121136
0.00127085
0.00132262
0.00136668
0.00140307
0.00143179
0.00145286
0.00146629
0.0014721
0.00147032
0.00146099
0.00144417
0.00141995
0.00138846
0.00134989
0.00130448
0.00125255
0.00119449
0.00113081
0.00106208
0.000988996
0.000912354
0.000833037
0.000752024
0.000670365
0.000589168
0.000509572
0.000432721
0.000359736
0.000291675
0.000229504
0.000174059
0.000126008
8.58193e-05
5.37295e-05
2.97182e-05
1.34762e-05
4.28874e-06
6.68927e-07
2.30455e-08
0.000261707
0.000716714
0.00109361
0.0014222
0.00171719
0.0019864
0.00223324
0.00245927
0.00266525
0.0028516
0.00301853
0.00316616
0.00329458
0.00340385
0.00349401
0.0035651
0.00361714
0.00365018
0.00366425
0.00365942
0.00363579
0.00359349
0.00353276
0.00345393
0.00335744
0.00324391
0.00311411
0.00296906
0.00280997
0.00263831
0.0024558
0.00226443
0.0020664
0.00186417
0.00166036
0.00145775
0.00125918
0.00106753
0.000885588
0.000716024
0.000561267
0.000423434
0.00030425
0.000204962
0.000126264
6.81951e-05
2.99132e-05
9.15144e-06
1.38518e-06
4.72828e-08
0.000507318
0.0014252
0.00220505
0.00288436
0.00349
0.00403927
0.00454092
0.00499925
0.00541642
0.00579351
0.0061311
0.00642953
0.00668898
0.00690959
0.00709144
0.00723462
0.00733918
0.00740518
0.00743271
0.00742187
0.00737288
0.00728599
0.00716168
0.00700059
0.00680363
0.00657203
0.0063074
0.00601174
0.00568755
0.00533782
0.00496606
0.00457629
0.00417306
0.00376135
0.00334652
0.00293425
0.00253037
0.00214075
0.00177114
0.001427
0.00111337
0.000834684
0.000594611
0.000395878
0.000240018
0.000126974
5.43465e-05
1.62352e-05
2.42073e-06
8.22546e-08
0.00086588
0.00247364
0.00387331
0.00509967
0.00618968
0.00717285
0.00806664
0.00888061
0.00961988
0.0102872
0.0108839
0.011411
0.0118688
0.0122577
0.012578
0.0128296
0.0130128
0.0131277
0.0131743
0.0131529
0.0130638
0.0129075
0.0126848
0.0123967
0.012045
0.0116317
0.0111597
0.0106326
0.0100548
0.00943165
0.00876938
0.00807519
0.00735719
0.00662429
0.0058861
0.00515279
0.00443483
0.00374276
0.00308694
0.00247725
0.00192284
0.00143187
0.00101114
0.000665662
0.00039798
0.000207131
8.7159e-05
2.56636e-05
3.79459e-06
1.28598e-07
0.00135092
0.00390274
0.00617094
0.00817645
0.00996004
0.0115632
0.0130143
0.0143311
0.0155236
0.0165978
0.0175569
0.0184029
0.019137
0.0197598
0.0202717
0.0206732
0.0209643
0.0211454
0.0212165
0.021178
0.0210303
0.0207743
0.020411
0.0199424
0.019371
0.0187003
0.0179348
0.0170802
0.0161438
0.0151342
0.0140615
0.0129374
0.0117752
0.0105892
0.00939535
0.00821012
0.00705069
0.00593436
0.00487814
0.0038983
0.00300996
0.00222662
0.0015595
0.00101652
0.000600818
0.000308887
0.000128473
3.74855e-05
5.51432e-06
1.86564e-07
0.00197074
0.00573698
0.00914196
0.012183
0.014896
0.0173312
0.0195284
0.0215151
0.0233089
0.0249206
0.0263568
0.0276213
0.0287168
0.0296447
0.0304061
0.0310016
0.0314316
0.0316964
0.0317963
0.0317318
0.0315035
0.0311125
0.0305606
0.0298505
0.0289858
0.0279719
0.0268155
0.0255253
0.0241121
0.022589
0.0209712
0.0192766
0.0175251
0.015739
0.013942
0.0121597
0.0104183
0.00874419
0.00716346
0.00570097
0.00437974
0.0032202
0.00223907
0.00144741
0.000847795
0.000431942
0.000178221
5.16913e-05
7.57898e-06
2.56127e-07
0.00272812
0.0079839
0.0128007
0.0171445
0.021038
0.024534
0.0276822
0.0305206
0.0330757
0.0353651
0.0374004
0.0391888
0.0407351
0.0420423
0.0431126
0.043947
0.0445466
0.0449118
0.0450432
0.0449413
0.0446071
0.044042
0.0432485
0.0422302
0.0409925
0.0395428
0.0378905
0.0360482
0.0340312
0.0318581
0.0295511
0.0271355
0.0246403
0.0220975
0.0195416
0.0170094
0.0145391
0.012169
0.0099367
0.00787774
0.00602473
0.00440614
0.00304492
0.0019552
0.0011373
0.000575643
0.000236198
6.82323e-05
9.98173e-06
3.37061e-07
0.00362001
0.0106328
0.0171298
0.0230409
0.0283676
0.0331586
0.0374694
0.0413477
0.0448297
0.0479415
0.0507008
0.0531198
0.0552067
0.0569671
0.0584045
0.0595216
0.0603197
0.0608
0.0609632
0.0608102
0.0603423
0.0595612
0.0584703
0.0570745
0.0553809
0.0533993
0.051143
0.0486286
0.0458773
0.0429146
0.0397708
0.0364811
0.0330851
0.0296273
0.0261557
0.0227212
0.0193769
0.0161758
0.0131694
0.0104058
0.00792805
0.0057727
0.00396916
0.00253533
0.00146715
0.000739165
0.000302169
8.7059e-05
1.27152e-05
4.29012e-07
0.00463773
0.0136553
0.022082
0.0298092
0.0368104
0.0431232
0.0488042
0.0539083
0.0584812
0.0625578
0.0661636
0.0693172
0.0720313
0.074315
0.0761746
0.0776143
0.0786368
0.0792439
0.079437
0.0792172
0.0785862
0.0775463
0.0761018
0.074259
0.072027
0.0694188
0.0664515
0.0631472
0.0595337
0.0556447
0.0515204
0.0472075
0.0427591
0.0382342
0.0336972
0.0292164
0.0248626
0.0207063
0.0168155
0.0132518
0.0100677
0.00730607
0.00500246
0.00318222
0.0018348
0.000921784
0.000376103
0.000108228
1.57935e-05
5.32461e-07
0.00576742
0.0170061
0.0275816
0.0373458
0.0462378
0.0542795
0.0615228
0.0680264
0.0738439
0.0790189
0.0835858
0.0875701
0.0909908
0.0938616
0.0961922
0.0979894
0.0992577
0.1
0.100218
0.0999148
0.0990913
0.0977508
0.0958987
0.0935428
0.0906947
0.0873706
0.0835922
0.079388
0.0747932
0.0698512
0.0646138
0.0591411
0.0535017
0.047772
0.0420353
0.0363803
0.0308986
0.0256814
0.020815
0.0163748
0.0124203
0.00899397
0.0061354
0.00388922
0.00223717
0.00112297
0.000458376
0.000132022
1.92755e-05
6.50207e-07
0.00699023
0.0206244
0.0335265
0.0455073
0.0564699
0.0664166
0.0753875
0.0834418
0.0906384
0.0970293
0.102657
0.107556
0.111752
0.115263
0.118106
0.120288
0.121818
0.1227
0.122938
0.122533
0.121489
0.11981
0.117501
0.114573
0.11104
0.106921
0.102244
0.0970438
0.0913645
0.0852603
0.0787958
0.0720466
0.0650987
0.0580484
0.0510006
0.0440669
0.0373627
0.0310028
0.0250946
0.0197288
0.0149655
0.0108293
0.00736099
0.00465054
0.00267244
0.00134379
0.000550591
0.00015925
2.32738e-05
7.81731e-07
0.00828326
0.024436
0.0397915
0.0541192
0.0672878
0.0792734
0.0901008
0.0998252
0.108509
0.116209
0.122979
0.128858
0.133882
0.138076
0.14146
0.144048
0.14585
0.146873
0.147121
0.146599
0.14531
0.143259
0.140453
0.136905
0.13263
0.127653
0.122008
0.115735
0.10889
0.101538
0.0937574
0.0856417
0.0772958
0.0688377
0.0603959
0.0521072
0.0441135
0.0365561
0.0295686
0.0232629
0.0176937
0.0127981
0.00866014
0.00545679
0.00314331
0.00159181
0.00065931
0.000193374
2.85159e-05
9.16993e-07
0.00962013
0.0283568
0.0462348
0.0629849
0.0784416
0.092548
0.105316
0.116791
0.127034
0.136109
0.144075
0.15098
0.156868
0.161771
0.165715
0.168718
0.170796
0.171957
0.172208
0.171555
0.170001
0.167554
0.164221
0.160017
0.154961
0.149083
0.142421
0.135025
0.126959
0.118302
0.109148
0.0996082
0.0898081
0.0798886
0.0700033
0.0603153
0.0509939
0.0422096
0.0341293
0.026912
0.0229074
0.0156399
0.0106744
0.00682383
0.00404829
0.00215078
0.000959839
0.000320999
6.19183e-05
2.6976e-06
0.0109716
0.0322952
0.0527031
0.0718915
0.0896527
0.105907
0.120651
0.133911
0.145748
0.156228
0.165415
0.173367
0.180133
0.185754
0.190263
0.193683
0.196034
0.197327
0.197573
0.196777
0.194946
0.192088
0.188212
0.183334
0.177478
0.170677
0.162976
0.154434
0.145124
0.135139
0.12459
0.113605
0.102331
0.0909344
0.0795923
0.0684945
0.0578366
0.0478154
0.0386233
0.0304218
0.0256425
0.0176227
0.0118835
0.0075637
0.00450927
0.0024166
0.0010883
0.000367316
7.07485e-05
2.86458e-06
0.0123065
0.0361559
0.0590364
0.0806126
0.100637
0.119014
0.135709
0.150742
0.164162
0.176039
0.18644
0.195431
0.203068
0.209398
0.214463
0.218291
0.220906
0.222323
0.222556
0.221612
0.219499
0.216226
0.211805
0.206254
0.199601
0.191881
0.183148
0.173467
0.162924
0.151624
0.139694
0.127282
0.114556
0.101704
0.0889304
0.0764487
0.064478
0.053235
0.0429272
0.0337106
0.0281581
0.0193539
0.0129689
0.00825412
0.00494402
0.00265882
0.00120021
0.000408624
7.98137e-05
3.27005e-06
0.0135922
0.0398437
0.0650767
0.0889292
0.111122
0.131525
0.150092
0.166835
0.181786
0.195012
0.206587
0.216581
0.225056
0.23207
0.237666
0.241882
0.244746
0.246277
0.24649
0.245397
0.243006
0.239328
0.234377
0.228173
0.220746
0.212139
0.202408
0.191629
0.179898
0.167333
0.154076
0.140293
0.126175
0.111931
0.0977899
0.0839886
0.070768
0.0583627
0.0469943
0.0368279
0.0306231
0.0210693
0.0141093
0.00900204
0.00540905
0.00267692
0.00117353
0.000390222
7.18228e-05
2.16598e-06
0.0147961
0.0432662
0.0706721
0.0966299
0.120832
0.143114
0.163429
0.181764
0.198146
0.212636
0.22531
0.236242
0.245502
0.253152
0.259243
0.263818
0.266909
0.268541
0.268731
0.267492
0.264836
0.260775
0.255324
0.248506
0.240354
0.230914
0.220251
0.208446
0.195605
0.18186
0.167366
0.152309
0.136897
0.121362
0.105953
0.0909322
0.0765596
0.0630885
0.0507569
0.03975
0.032964
0.0228054
0.015301
0.00979366
0.00589582
0.00291808
0.00129656
0.000434549
8.20777e-05
2.57574e-06
0.0158858
0.0463373
0.0756829
0.103521
0.129521
0.153494
0.175367
0.195129
0.212805
0.228438
0.242105
0.253884
0.263851
0.272072
0.278607
0.283502
0.286794
0.288512
0.288676
0.287302
0.284402
0.279991
0.274086
0.266711
0.257903
0.247712
0.236206
0.223476
0.209637
0.19483
0.179225
0.163024
0.146452
0.129761
0.11322
0.097111
0.0817141
0.0672995
0.0541215
0.0423824
0.0350561
0.0244318
0.0164259
0.0105382
0.00635625
0.00314688
0.00140472
0.000472807
9.07996e-05
2.86693e-06
0.016831
0.0489796
0.0799846
0.109432
0.136971
0.162396
0.185604
0.206593
0.225378
0.241999
0.256524
0.269033
0.279609
0.288322
0.295236
0.300403
0.303865
0.305653
0.30579
0.304295
0.301181
0.296464
0.290164
0.282307
0.272931
0.26209
0.249857
0.23633
0.22163
0.205909
0.18935
0.172166
0.154599
0.136918
0.11941
0.102374
0.0861052
0.0708906
0.0569971
0.0446368
0.0368174
0.0258393
0.0173943
0.011178
0.00675793
0.00335575
0.00151118
0.000515516
0.000100666
3.18867e-06
0.0176046
0.0511264
0.0834718
0.114218
0.143002
0.169599
0.193895
0.215863
0.235541
0.252965
0.268188
0.281291
0.292359
0.301469
0.308688
0.314072
0.317667
0.319507
0.319618
0.318019
0.314727
0.309759
0.303134
0.294882
0.285042
0.273672
0.260848
0.246673
0.231274
0.214813
0.197482
0.179504
0.161135
0.142656
0.12437
0.106589
0.0896225
0.0737691
0.0593057
0.0464512
0.0382157
0.026993
0.0181894
0.0117069
0.0070981
0.0035468
0.00161098
0.000559704
9.8975e-05
5.82454e-06
0.0181838
0.0527245
0.0860625
0.117769
0.14747
0.174934
0.200033
0.222728
0.243052
0.26106
0.276805
0.290347
0.301777
0.311176
0.318616
0.324156
0.327844
0.329717
0.329803
0.328123
0.324694
0.319535
0.312666
0.304117
0.293931
0.282166
0.268903
0.254247
0.238331
0.221323
0.203421
0.184858
0.165899
0.146835
0.127979
0.109654
0.0921797
0.0758626
0.0609876
0.0477801
0.0392187
0.0278845
0.0188138
0.0121256
0.00737235
0.00370716
0.00170736
0.000608852
0.000113977
7.24281e-06
0.0185559
0.0537484
0.0877214
0.12004
0.150325
0.178338
0.203945
0.2271
0.247825
0.266193
0.282261
0.296081
0.307736
0.317313
0.324886
0.330518
0.334258
0.336145
0.336209
0.334471
0.33095
0.325663
0.318634
0.309894
0.299484
0.287466
0.273922
0.25896
0.242716
0.225362
0.2071
0.188169
0.16884
0.14941
0.1302
0.111537
0.0937488
0.0771468
0.0620209
0.0486007
0.0397941
0.0284886
0.0192494
0.0124192
0.00756317
0.00381522
0.00178739
0.00066322
0.000183091
1.74983e-05
0.0186966
0.0541371
0.0883518
0.1209
0.151402
0.179615
0.205405
0.228723
0.249587
0.268071
0.284244
0.298157
0.309883
0.319512
0.327122
0.332775
0.336522
0.338403
0.338447
0.336678
0.333113
0.327771
0.320676
0.311858
0.301361
0.289246
0.275596
0.26052
0.244157
0.226678
0.208288
0.189229
0.169772
0.150219
0.13089
0.112116
0.0942271
0.0775353
0.0623324
0.048849
0.0398811
0.0287502
0.019443
0.0125495
0.00764806
0.00386539
0.00182351
0.000695478
0.000208399
3.25124e-05
0.0186042
0.0538854
0.0879429
0.120333
0.150677
0.178736
0.204377
0.227553
0.248285
0.26665
0.28271
0.296519
0.308156
0.317711
0.325258
0.33086
0.334569
0.336423
0.336452
0.334678
0.33112
0.325797
0.318731
0.309953
0.299507
0.287454
0.273876
0.258883
0.242612
0.225234
0.206953
0.188008
0.168671
0.149238
0.13003
0.111375
0.0935991
0.0770135
0.0619076
0.0485091
0.0394675
0.0286242
0.0193531
0.0124876
0.00760516
0.00382728
0.00179593
0.000673505
0.000187274
1.99526e-05
0.0182816
0.0530002
0.0865038
0.11835
0.148166
0.175718
0.200881
0.223614
0.243951
0.261956
0.277685
0.291203
0.302598
0.311952
0.31934
0.324822
0.328448
0.330256
0.330273
0.328523
0.325022
0.31979
0.312847
0.304226
0.293968
0.282135
0.268806
0.25409
0.23812
0.221066
0.203126
0.184536
0.16556
0.14649
0.12764
0.10933
0.0918794
0.075594
0.0607574
0.0475931
0.0385935
0.0281246
0.0189933
0.0122428
0.00744176
0.00371499
0.00171888
0.000619306
0.000152262
7.62481e-06
0.0177511
0.0515364
0.0841231
0.115071
0.144018
0.170742
0.195127
0.217147
0.236844
0.254266
0.269467
0.282532
0.293547
0.30259
0.309732
0.315031
0.318535
0.32028
0.320291
0.31859
0.315194
0.310119
0.303388
0.29503
0.285087
0.273616
0.260698
0.246434
0.230958
0.214429
0.197043
0.179025
0.160632
0.142145
0.123866
0.106107
0.0891758
0.0733681
0.0589598
0.0461701
0.0373136
0.0273173
0.0184251
0.0118591
0.00718774
0.00355524
0.00162255
0.000566968
0.000131617
5.91156e-06
0.0170175
0.0495028
0.0808146
0.110517
0.138263
0.163846
0.187163
0.208216
0.227027
0.243645
0.258142
0.2706
0.281105
0.289732
0.296547
0.301606
0.304951
0.306617
0.306628
0.305002
0.301755
0.296903
0.290468
0.282476
0.272968
0.262
0.249647
0.236008
0.221209
0.205403
0.188775
0.17154
0.153943
0.136252
0.118755
0.101746
0.0855236
0.070368
0.0565453
0.0442693
0.0356645
0.0262422
0.0176836
0.0113635
0.00686507
0.00336511
0.00152003
0.000521219
0.000102641
3.33889e-06
0.0161047
0.0469538
0.0766612
0.104799
0.131041
0.155198
0.177196
0.197033
0.214741
0.23037
0.244001
0.255718
0.265599
0.273717
0.280135
0.284901
0.288056
0.28963
0.289645
0.288117
0.285061
0.280491
0.274427
0.266894
0.257931
0.24759
0.235943
0.223082
0.209126
0.194218
0.178533
0.162273
0.145665
0.128962
0.112434
0.0963586
0.0810158
0.0666719
0.0535795
0.0419448
0.033679
0.0249199
0.0167777
0.0107639
0.0064843
0.00315473
0.00141281
0.000476609
9.11362e-05
2.91397e-06
0.0150393
0.0439537
0.0717643
0.0980561
0.122526
0.145009
0.165463
0.183882
0.200299
0.214783
0.227415
0.238275
0.247438
0.254972
0.260931
0.265362
0.268301
0.269772
0.269795
0.268385
0.265555
0.261317
0.255689
0.248695
0.240371
0.230765
0.219943
0.207992
0.195021
0.181164
0.166581
0.151457
0.136005
0.120457
0.105062
0.0900783
0.0757659
0.0623737
0.0501382
0.0392515
0.0314011
0.0233609
0.015707
0.0100579
0.006046
0.0029287
0.00130463
0.000438571
8.2247e-05
2.58249e-06
0.013851
0.0405786
0.0662452
0.0904545
0.112932
0.133548
0.152262
0.169093
0.18408
0.197298
0.208825
0.21874
0.227111
0.233999
0.239454
0.243517
0.246217
0.247576
0.247612
0.246336
0.243759
0.239892
0.234752
0.228361
0.220751
0.211966
0.202067
0.191132
0.179261
0.166576
0.153223
0.139369
0.125208
0.11095
0.096822
0.0830606
0.0699035
0.057581
0.0463124
0.0362752
0.0289377
0.0216275
0.0145102
0.00926625
0.00556174
0.00268656
0.00118036
0.000394331
7.30581e-05
2.20668e-06
0.0125723
0.0369141
0.060243
0.0821865
0.102503
0.121097
0.137942
0.153063
0.166519
0.178384
0.188734
0.197641
0.205169
0.21137
0.216289
0.219958
0.222404
0.223646
0.223695
0.222564
0.22026
0.216793
0.212178
0.206435
0.199593
0.191691
0.182784
0.172942
0.162256
0.150832
0.138802
0.126316
0.113545
0.100678
0.0879179
0.0754768
0.0635702
0.0524087
0.0421967
0.0331042
0.0264055
0.0198422
0.0132968
0.00846389
0.00507121
0.0027222
0.00122595
0.000420085
8.32496e-05
3.50113e-06
0.0112363
0.033053
0.0539099
0.0734642
0.0915141
0.107983
0.122873
0.13622
0.148089
0.158554
0.167689
0.175556
0.182212
0.187704
0.192067
0.195329
0.197512
0.19863
0.198694
0.197712
0.195691
0.19264
0.188571
0.183502
0.177459
0.170476
0.162602
0.1539
0.144447
0.134338
0.123689
0.112629
0.10131
0.0898971
0.0785677
0.0675098
0.0569152
0.0469748
0.0378812
0.0298125
0.0238147
0.0181106
0.0121636
0.0077293
0.00461394
0.00247788
0.00111802
0.00037832
7.30969e-05
2.95879e-06
0.00987619
0.0290924
0.0474066
0.0645095
0.0802435
0.0945547
0.107461
0.119016
0.129287
0.138346
0.146259
0.153081
0.158862
0.163639
0.167442
0.170293
0.172209
0.173201
0.173277
0.172444
0.170708
0.168075
0.164557
0.160168
0.154932
0.148878
0.142049
0.134499
0.126294
0.117517
0.108266
0.0986533
0.0888082
0.0788722
0.0689988
0.0593497
0.0500918
0.0413935
0.0334306
0.0263802
0.0209479
0.0162887
0.0110372
0.00702494
0.00417451
0.00222747
0.000998625
0.00033503
6.42177e-05
2.60786e-06
0.00852426
0.0251298
0.0408967
0.0555545
0.0689807
0.0811554
0.0921093
0.101905
0.110611
0.118295
0.125012
0.130813
0.135736
0.139812
0.143064
0.145509
0.14716
0.148025
0.14811
0.14742
0.14596
0.143736
0.140757
0.137036
0.132592
0.127452
0.12165
0.115233
0.108257
0.100792
0.0929197
0.0847352
0.0763462
0.0678719
0.0594409
0.0511894
0.0432575
0.0357872
0.0289252
0.0228108
0.0173581
0.0125004
0.00844377
0.00531266
0.00306044
0.00155073
0.00064205
0.000188177
2.7718e-05
8.90633e-07
0.00721085
0.0212603
0.0345386
0.0468188
0.058013
0.0681279
0.0772103
0.0853258
0.0925406
0.0989133
0.104493
0.109319
0.113423
0.116827
0.119549
0.121602
0.122995
0.123734
0.123824
0.123268
0.122069
0.120233
0.117768
0.114684
0.110997
0.10673
0.101911
0.0965796
0.0907815
0.0845742
0.0780253
0.0712127
0.0642248
0.057159
0.0501205
0.0432205
0.0365729
0.0302898
0.0244824
0.0192624
0.0146327
0.0105674
0.00717917
0.00453586
0.00260835
0.00131213
0.00053746
0.00015537
2.27029e-05
7.63141e-07
0.00596365
0.0175718
0.0284806
0.0385073
0.0476002
0.0557864
0.063124
0.0696784
0.0755093
0.0806666
0.0851898
0.0891095
0.0924488
0.0952248
0.0974501
0.0991337
0.100282
0.100899
0.100988
0.100552
0.0995929
0.0981156
0.096126
0.0936334
0.0906507
0.0871961
0.0832934
0.0789733
0.0742737
0.0692407
0.0639283
0.0583991
0.0527235
0.0469792
0.0412502
0.0356249
0.0301939
0.0250456
0.0202623
0.0159282
0.0120799
0.00874033
0.00596257
0.00377876
0.00217356
0.00109083
0.000444978
0.00012803
1.8662e-05
6.2817e-07
0.00480692
0.0141424
0.0228545
0.0308035
0.0379726
0.0444047
0.0501625
0.055307
0.0598893
0.0639492
0.0675171
0.0706152
0.0732599
0.0754631
0.0772335
0.078577
0.079498
0.0799992
0.0800828
0.0797508
0.0790054
0.0778498
0.076289
0.0743305
0.0719846
0.0692658
0.0661929
0.0627901
0.0590873
0.0551204
0.0509318
0.0465702
0.0420902
0.037552
0.0330206
0.0285642
0.0242531
0.0201558
0.0163353
0.0128539
0.00975523
0.00707258
0.00484001
0.00307649
0.00177288
0.000890181
0.000362915
0.000104308
1.51947e-05
5.11407e-07
0.00376096
0.0110377
0.0177699
0.0238608
0.0293221
0.0342075
0.0385783
0.0424873
0.0459754
0.0490724
0.0518
0.0541733
0.0562034
0.057898
0.0592627
0.0603014
0.0610169
0.0614111
0.0614852
0.061241
0.0606799
0.0598047
0.0586191
0.0571291
0.0553426
0.0532708
0.0509282
0.0483332
0.0455087
0.042482
0.0392851
0.0359548
0.0325323
0.0290628
0.0255948
0.0221795
0.0188691
0.0157154
0.0127663
0.010068
0.00765836
0.00556863
0.00382447
0.00243996
0.00141058
0.000709973
0.000289889
8.33846e-05
1.21501e-05
4.0893e-07
0.00284106
0.00830701
0.0133095
0.0177925
0.0217887
0.025356
0.0285489
0.0314096
0.0339681
0.0362454
0.0382553
0.0400078
0.0415096
0.0427655
0.0437789
0.0445524
0.0450875
0.0453857
0.0454477
0.0452747
0.044868
0.0442295
0.0433622
0.0422704
0.0409602
0.0394399
0.0377202
0.0358148
0.0337403
0.0315168
0.0291678
0.0267199
0.0242033
0.0216505
0.0190968
0.0165788
0.0141342
0.0118003
0.00961237
0.00760364
0.00580347
0.00423669
0.00292303
0.00187394
0.00108848
0.000550119
0.00022534
6.49522e-05
9.47299e-06
3.18859e-07
0.00205716
0.00598281
0.00952704
0.0126701
0.0154574
0.0179435
0.0201722
0.0221743
0.02397
0.025572
0.0269891
0.0282268
0.0292892
0.030179
0.0308984
0.0314486
0.0318309
0.0320461
0.0320946
0.0319775
0.0316955
0.0312502
0.0306436
0.0298789
0.0289605
0.0278942
0.0266876
0.0253504
0.0238943
0.0223334
0.0206841
0.018965
0.0171971
0.015403
0.0136071
0.0118347
0.0101116
0.00846375
0.00691549
0.0054899
0.00420778
0.00308706
0.00214213
0.00138202
0.000807976
0.000410847
0.000169143
4.89227e-05
7.14663e-06
2.40609e-07
0.00141348
0.00407927
0.00644558
0.00852111
0.0103549
0.0119922
0.0134643
0.0147911
0.0159844
0.0170516
0.0179973
0.0188245
0.0195354
0.0201316
0.0206142
0.0209841
0.0212421
0.0213885
0.0214239
0.0213487
0.0211636
0.0208697
0.0204683
0.0199617
0.0193527
0.0186454
0.0178447
0.0169572
0.0159907
0.0149545
0.0138595
0.012718
0.0115438
0.010352
0.00915833
0.00797956
0.00683253
0.005734
0.00470004
0.00374569
0.00288457
0.00212855
0.00148725
0.000967179
0.000570344
0.000292515
0.000121336
3.52843e-05
5.16759e-06
1.74051e-07
0.00090811
0.00259146
0.00405504
0.0053256
0.00644698
0.00745134
0.00835808
0.00917814
0.00991767
0.0105803
0.0111683
0.0116831
0.012126
0.0124978
0.012799
0.0130304
0.0131921
0.0132847
0.0133082
0.0132632
0.0131499
0.0129691
0.0127217
0.0124091
0.012033
0.011596
0.0111013
0.0105528
0.00995538
0.00931488
0.00863798
0.00793232
0.00720637
0.00646933
0.00573101
0.00500156
0.00429129
0.00361041
0.0029687
0.00237528
0.00183839
0.00136517
0.000961427
0.000631252
0.000376399
0.000195347
8.19391e-05
2.40296e-05
3.53399e-06
1.19116e-07
0.000533322
0.00149658
0.00231395
0.00301833
0.00364165
0.00420285
0.00471178
0.0051735
0.00559072
0.00596502
0.00629745
0.00658873
0.00683943
0.00705
0.0072208
0.00735211
0.00744415
0.00749712
0.00751117
0.00748651
0.00742339
0.0073222
0.00718348
0.007008
0.0067968
0.00655131
0.00627331
0.00596507
0.00562934
0.00526936
0.00488892
0.00449231
0.00408428
0.00366998
0.00325489
0.00284469
0.00244512
0.00206185
0.00170032
0.00136556
0.0010621
0.000793806
0.000563789
0.000374237
0.000226212
0.000119288
5.08697e-05
1.51239e-05
2.24025e-06
7.56089e-08
0.000275803
0.00075449
0.00115046
0.0014913
0.00179499
0.00207008
0.00232051
0.0025482
0.00275418
0.00293909
0.00310337
0.00324737
0.00337134
0.00347551
0.00356005
0.00362511
0.00367079
0.00369721
0.00370442
0.00369256
0.00366175
0.00361217
0.0035441
0.00345793
0.00335419
0.00323356
0.00309694
0.00294544
0.00278043
0.0026035
0.00241652
0.00222158
0.00202103
0.0018174
0.00161336
0.00141171
0.00121523
0.00102672
0.0008488
0.000683934
0.0005343
0.000401743
0.000287707
0.000193176
0.000118603
6.38303e-05
2.78838e-05
8.48313e-06
1.27367e-06
4.31017e-08
0.000117242
0.000308791
0.000464224
0.000599095
0.000720346
0.000830725
0.000931428
0.00102306
0.00110598
0.00118043
0.00124658
0.00130457
0.0013545
0.00139646
0.00143053
0.00145676
0.0014752
0.0014859
0.00148888
0.0014842
0.0014719
0.00145207
0.00142481
0.00139028
0.0013487
0.00130035
0.00124558
0.00118484
0.00111869
0.00104776
0.000972797
0.000894652
0.000814258
0.000732627
0.000650835
0.000569991
0.000491221
0.000415628
0.000344268
0.000278118
0.000218042
0.000164765
0.000118845
8.06432e-05
5.02996e-05
2.77121e-05
1.25103e-05
3.95645e-06
6.11078e-07
2.08179e-08
3.54533e-05
8.88023e-05
0.000132115
0.000170241
0.000204738
0.000236198
0.000264908
0.00029103
0.000314666
0.000335884
0.000354735
0.000371259
0.000385488
0.000397447
0.000407158
0.000414638
0.0004199
0.000422957
0.000423818
0.000422497
0.000419009
0.000413377
0.000405633
0.000395822
0.000384004
0.000370261
0.000354694
0.000337431
0.000318629
0.000298469
0.000277166
0.000254958
0.000232112
0.000208916
0.000185675
0.000162703
0.000140321
0.00011884
9.85613e-05
7.97599e-05
6.26806e-05
4.75275e-05
3.44562e-05
2.35651e-05
1.48873e-05
8.38202e-06
3.92803e-06
1.3179e-06
2.16804e-07
7.53393e-09
5.38351e-06
1.28949e-05
1.91366e-05
2.46736e-05
2.96862e-05
3.42554e-05
3.84236e-05
4.22151e-05
4.5645e-05
4.87238e-05
5.14589e-05
5.38561e-05
5.59203e-05
5.76552e-05
5.90639e-05
6.01489e-05
6.09122e-05
6.13557e-05
6.14805e-05
6.12888e-05
6.07829e-05
5.9966e-05
5.88428e-05
5.74199e-05
5.57061e-05
5.3713e-05
5.14556e-05
4.89525e-05
4.62262e-05
4.33034e-05
4.02148e-05
3.69955e-05
3.36838e-05
3.03217e-05
2.69531e-05
2.36239e-05
2.03802e-05
1.72674e-05
1.43289e-05
1.16045e-05
9.12956e-06
6.93359e-06
5.03892e-06
3.45956e-06
2.20007e-06
1.25422e-06
6.03395e-07
2.14928e-07
3.98992e-08
1.50308e-09
1.81369e-07
4.33831e-07
6.44328e-07
8.30771e-07
9.99467e-07
1.15321e-06
1.29343e-06
1.42097e-06
1.53635e-06
1.6399e-06
1.73189e-06
1.81252e-06
1.88193e-06
1.94027e-06
1.98763e-06
2.02411e-06
2.04975e-06
2.06465e-06
2.06882e-06
2.06233e-06
2.04528e-06
2.01776e-06
1.97993e-06
1.93202e-06
1.87433e-06
1.80723e-06
1.73125e-06
1.647e-06
1.55524e-06
1.45687e-06
1.35293e-06
1.2446e-06
1.13316e-06
1.02003e-06
9.067e-07
7.94697e-07
6.8558e-07
5.80874e-07
4.82038e-07
3.90414e-07
3.0719e-07
2.33353e-07
1.69654e-07
1.16558e-07
7.42142e-08
4.24126e-08
2.05298e-08
7.44656e-09
1.4881e-09
9.54106e-11
1.20686e-07
2.83377e-09
1.29332e-10
7.08283e-12
3.82727e-13
1.84536e-14
1.77481e-15
1e-15
1e-15
1e-15
1e-15
1e-15
1e-15
1.0058e-15
4.023e-15
1.12139e-13
2.41307e-12
4.92785e-11
1.00508e-09
2.30927e-08
2.42612e-06
1.26506e-07
6.24617e-09
3.19317e-10
1.56105e-11
7.37674e-13
5.49536e-14
1e-15
1e-15
1e-15
1e-15
1e-15
1.13628e-15
3.36289e-14
4.93879e-13
1.19003e-11
2.47714e-10
5.03416e-09
1.01886e-07
2.01665e-06
7.16808e-07
2.85789e-08
1.3404e-09
6.7824e-11
3.3622e-12
1.57541e-13
1.14475e-14
1e-15
1e-15
1e-15
1e-15
1e-15
1e-15
7.69909e-15
1.11367e-13
2.58533e-12
5.35342e-11
1.09229e-09
2.23599e-08
4.96378e-07
7.82771e-11
1.22002e-09
6.08837e-09
1.66812e-08
3.41029e-08
5.8822e-08
9.07336e-08
1.29236e-07
1.73322e-07
2.2167e-07
2.72755e-07
3.24955e-07
3.76657e-07
4.26349e-07
4.72703e-07
5.14633e-07
5.5133e-07
5.82283e-07
6.07276e-07
6.26363e-07
6.39844e-07
6.48214e-07
6.52122e-07
6.52321e-07
6.49623e-07
6.44859e-07
6.38845e-07
6.32359e-07
6.26126e-07
6.20802e-07
6.16982e-07
6.15199e-07
6.15938e-07
6.19639e-07
6.26711e-07
6.37545e-07
6.52522e-07
6.72008e-07
6.96362e-07
7.25926e-07
7.61015e-07
8.01894e-07
8.48756e-07
9.01685e-07
9.60631e-07
1.02537e-06
1.0955e-06
1.17041e-06
1.24932e-06
1.33131e-06
1.41533e-06
1.50033e-06
1.5852e-06
1.66892e-06
1.75051e-06
1.82912e-06
1.904e-06
1.97456e-06
2.04037e-06
2.10112e-06
2.15667e-06
2.20697e-06
2.25211e-06
2.29225e-06
2.32763e-06
2.35854e-06
2.38528e-06
2.40821e-06
2.42766e-06
2.44398e-06
2.45748e-06
2.46846e-06
2.47721e-06
2.48396e-06
2.48893e-06
2.4923e-06
2.49421e-06
2.49478e-06
2.49409e-06
2.49221e-06
2.48916e-06
2.48496e-06
2.4796e-06
2.47308e-06
2.46538e-06
2.45648e-06
2.44638e-06
2.43509e-06
2.42268e-06
2.40925e-06
2.39495e-06
2.38003e-06
2.36481e-06
2.3497e-06
2.33518e-06
2.32179e-06
2.31011e-06
2.30071e-06
2.2941e-06
2.29064e-06
1.23348e-09
3.27167e-08
1.75675e-07
4.89971e-07
1.00809e-06
1.7438e-06
2.69391e-06
3.84047e-06
5.15335e-06
6.59319e-06
8.11449e-06
9.66888e-06
1.12083e-05
1.26877e-05
1.40675e-05
1.53154e-05
1.64073e-05
1.7328e-05
1.80712e-05
1.86384e-05
1.90387e-05
1.92869e-05
1.94022e-05
1.94071e-05
1.93259e-05
1.91833e-05
1.90036e-05
1.88099e-05
1.86238e-05
1.84649e-05
1.83509e-05
1.82976e-05
1.83194e-05
1.84294e-05
1.86397e-05
1.89622e-05
1.94079e-05
1.99878e-05
2.07127e-05
2.15927e-05
2.26372e-05
2.38541e-05
2.52491e-05
2.68248e-05
2.85796e-05
3.0507e-05
3.25948e-05
3.4825e-05
3.71743e-05
3.9615e-05
4.21165e-05
4.46466e-05
4.71731e-05
4.96651e-05
5.20938e-05
5.44334e-05
5.66622e-05
5.87625e-05
6.07211e-05
6.25293e-05
6.41825e-05
6.56797e-05
6.70232e-05
6.82179e-05
6.92709e-05
7.01906e-05
7.09867e-05
7.16691e-05
7.2248e-05
7.27336e-05
7.31354e-05
7.34624e-05
7.37227e-05
7.39237e-05
7.40716e-05
7.41718e-05
7.42287e-05
7.42456e-05
7.42252e-05
7.41693e-05
7.40784e-05
7.39533e-05
7.37939e-05
7.35998e-05
7.33705e-05
7.31056e-05
7.28049e-05
7.2469e-05
7.20995e-05
7.16995e-05
7.12739e-05
7.08297e-05
7.03767e-05
6.99268e-05
6.94946e-05
6.90961e-05
6.87485e-05
6.84688e-05
6.82729e-05
6.81712e-05
6.19674e-09
1.78081e-07
1.07887e-06
3.19428e-06
6.7471e-06
1.18188e-05
1.83819e-05
2.63095e-05
3.5391e-05