/*--------------------------------*- C++ -*----------------------------------*\
| =========                 |                                                 |
| \\      /  F ield         | foam-extend: Open Source CFD                    |
|  \\    /   O peration     | Version:     4.0                                |
|   \\  /    A nd           | Web:         http://www.foam-extend.org         |
|    \\/     M anipulation  |                                                 |
\*---------------------------------------------------------------------------*/
FoamFile
{
    version     2.0;
    format      ascii;
    class       volScalarField;
    location    "0.0014";
    object      nut;
}
// * * * * * * * * * * * * * * * * * * * * * * * * * * * * * * * * * * * * * //

dimensions      [0 2 -1 0 0 0 0];

internalField   nonuniform List<scalar> 
28770
(
8.98811e-15
2.16134e-14
3.22367e-14
4.18301e-14
5.05457e-14
5.85563e-14
6.59176e-14
7.26629e-14
7.88121e-14
8.43764e-14
8.93625e-14
9.37746e-14
9.76155e-14
1.00887e-13
1.03591e-13
1.05728e-13
1.07299e-13
1.08307e-13
1.08751e-13
1.08635e-13
1.07961e-13
1.06734e-13
1.04961e-13
1.02652e-13
9.98208e-14
9.64846e-14
9.26674e-14
8.83985e-14
8.37141e-14
7.86577e-14
7.32798e-14
6.76388e-14
6.17998e-14
5.58346e-14
4.98205e-14
4.38387e-14
3.79729e-14
3.23074e-14
2.69241e-14
2.19011e-14
1.7309e-14
1.32088e-14
9.64914e-15
6.66317e-15
4.26619e-15
2.45293e-15
1.195e-15
4.36983e-16
8.88119e-17
5.91582e-18
1.86691e-12
3.80114e-12
5.57998e-12
7.22491e-12
8.72684e-12
1.0108e-11
1.13775e-11
1.2541e-11
1.36017e-11
1.45614e-11
1.54215e-11
1.61825e-11
1.6845e-11
1.74092e-11
1.78754e-11
1.82439e-11
1.85148e-11
1.86884e-11
1.87648e-11
1.87445e-11
1.8628e-11
1.8416e-11
1.81098e-11
1.77111e-11
1.72222e-11
1.66462e-11
1.59873e-11
1.52504e-11
1.44418e-11
1.3569e-11
1.26407e-11
1.16671e-11
1.06593e-11
9.62971e-12
8.59174e-12
7.55938e-12
6.5471e-12
5.56941e-12
4.64048e-12
3.77376e-12
2.98145e-12
2.27409e-12
1.66005e-12
1.14505e-12
7.31713e-13
4.19043e-13
2.01878e-13
7.01238e-14
1.00283e-14
9.53911e-17
4.9177e-11
8.23898e-11
1.15119e-10
1.47167e-10
1.7716e-10
2.04954e-10
2.30573e-10
2.54076e-10
2.75512e-10
2.94912e-10
3.12297e-10
3.27679e-10
3.41068e-10
3.52469e-10
3.61888e-10
3.69328e-10
3.74794e-10
3.78289e-10
3.79818e-10
3.79389e-10
3.77013e-10
3.72703e-10
3.66487e-10
3.58396e-10
3.4848e-10
3.36801e-10
3.2344e-10
3.08502e-10
2.92112e-10
2.74421e-10
2.55609e-10
2.35877e-10
2.15455e-10
1.94594e-10
1.73564e-10
1.5265e-10
1.32144e-10
1.12341e-10
9.35281e-11
7.59776e-11
5.99364e-11
4.56172e-11
3.3188e-11
2.2761e-11
1.43814e-11
8.01702e-12
3.56693e-12
9.55452e-13
7.35805e-14
4.6898e-16
4.85311e-10
6.78637e-10
8.86847e-10
1.10478e-09
1.31724e-09
1.51814e-09
1.70507e-09
1.87732e-09
2.03474e-09
2.17735e-09
2.30519e-09
2.41833e-09
2.5168e-09
2.60063e-09
2.66985e-09
2.72449e-09
2.76457e-09
2.79013e-09
2.80118e-09
2.79779e-09
2.78003e-09
2.74802e-09
2.70192e-09
2.642e-09
2.56861e-09
2.48219e-09
2.38337e-09
2.2729e-09
2.1517e-09
2.02092e-09
1.88184e-09
1.73599e-09
1.58505e-09
1.43087e-09
1.27546e-09
1.12091e-09
9.69401e-10
8.23091e-10
6.841e-10
5.54427e-10
4.35877e-10
3.29986e-10
2.37942e-10
1.60508e-10
9.80133e-11
5.05892e-11
1.89077e-11
3.69715e-12
2.14181e-13
1.28122e-15
2.72352e-09
3.34825e-09
4.10353e-09
4.94638e-09
5.80571e-09
6.64165e-09
7.43265e-09
8.16838e-09
8.84424e-09
9.45822e-09
1.00095e-08
1.04976e-08
1.09226e-08
1.12844e-08
1.1583e-08
1.18184e-08
1.19908e-08
1.21002e-08
1.21468e-08
1.21307e-08
1.20523e-08
1.1912e-08
1.17107e-08
1.14493e-08
1.11294e-08
1.07529e-08
1.03226e-08
9.84163e-09
9.31412e-09
8.74491e-09
8.13971e-09
7.50504e-09
6.84826e-09
6.17742e-09
5.5012e-09
4.82872e-09
4.16936e-09
3.53247e-09
2.92717e-09
2.36198e-09
1.84454e-09
1.38133e-09
9.77514e-10
6.37171e-10
3.64698e-10
1.67218e-10
5.20477e-11
8.43632e-12
4.45939e-13
2.62869e-15
1.0591e-08
1.20179e-08
1.39783e-08
1.62992e-08
1.87666e-08
2.1241e-08
2.36321e-08
2.5887e-08
2.79763e-08
2.98844e-08
3.16029e-08
3.31276e-08
3.44561e-08
3.55873e-08
3.65205e-08
3.72556e-08
3.77925e-08
3.81313e-08
3.82722e-08
3.82158e-08
3.79629e-08
3.7515e-08
3.68743e-08
3.60443e-08
3.50295e-08
3.38362e-08
3.24726e-08
3.09491e-08
2.92784e-08
2.74759e-08
2.55594e-08
2.35495e-08
2.14695e-08
1.93446e-08
1.72022e-08
1.50708e-08
1.29798e-08
1.09583e-08
9.03454e-09
7.23503e-09
5.58387e-09
4.10293e-09
2.81346e-09
1.74017e-09
9.16001e-10
3.73451e-10
1.02482e-10
1.52323e-11
7.80077e-13
4.57295e-15
3.19798e-08
3.46576e-08
3.87496e-08
4.38655e-08
4.95096e-08
5.53351e-08
6.109e-08
6.66049e-08
7.17727e-08
7.65283e-08
8.08332e-08
8.46645e-08
8.80091e-08
9.08594e-08
9.32107e-08
9.50606e-08
9.64075e-08
9.72509e-08
9.75907e-08
9.74277e-08
9.67638e-08
9.56022e-08
9.39485e-08
9.18109e-08
8.92009e-08
8.61343e-08
8.26318e-08
7.87195e-08
7.44298e-08
6.98016e-08
6.48803e-08
5.97184e-08
5.43745e-08
4.89128e-08
4.34026e-08
3.7916e-08
3.2527e-08
2.73094e-08
2.23354e-08
1.76748e-08
1.33965e-08
9.57381e-09
6.29308e-09
3.65981e-09
1.77651e-09
6.63056e-10
1.69352e-10
2.4203e-11
1.22308e-12
7.14943e-15
8.06243e-08
8.5174e-08
9.24597e-08
1.02107e-07
1.13108e-07
1.24759e-07
1.36511e-07
1.4796e-07
1.58825e-07
1.68915e-07
1.7811e-07
1.86329e-07
1.93525e-07
1.99667e-07
2.04735e-07
2.08717e-07
2.11605e-07
2.13395e-07
2.14084e-07
2.13673e-07
2.12163e-07
2.09561e-07
2.05877e-07
2.0113e-07
1.95342e-07
1.88547e-07
1.80791e-07
1.7213e-07
1.62633e-07
1.52385e-07
1.41485e-07
1.30046e-07
1.18196e-07
1.06076e-07
9.38343e-08
8.163e-08
6.96255e-08
5.79866e-08
4.68818e-08
3.64873e-08
2.69983e-08
1.86445e-08
1.16948e-08
6.41203e-09
2.91787e-09
1.02818e-09
2.52576e-10
3.54135e-11
1.77752e-12
1.03721e-14
1.77609e-07
1.84745e-07
1.96571e-07
2.12843e-07
2.31904e-07
2.52541e-07
2.73751e-07
2.94741e-07
3.14912e-07
3.33835e-07
3.51205e-07
3.6682e-07
3.80539e-07
3.92272e-07
4.01959e-07
4.09558e-07
4.15043e-07
4.18395e-07
4.19602e-07
4.1866e-07
4.15568e-07
4.10335e-07
4.02977e-07
3.93527e-07
3.82028e-07
3.68543e-07
3.53156e-07
3.35977e-07
3.17138e-07
2.96801e-07
2.75159e-07
2.52431e-07
2.28864e-07
2.04731e-07
1.80328e-07
1.55969e-07
1.31988e-07
1.0874e-07
8.66093e-08
6.60306e-08
4.75118e-08
3.16349e-08
1.89787e-08
9.90969e-09
4.30674e-09
1.46468e-09
3.52124e-10
4.88665e-11
2.44312e-12
1.42394e-14
3.52597e-07
3.63337e-07
3.8127e-07
4.06455e-07
4.36619e-07
4.69896e-07
5.0466e-07
5.39554e-07
5.73493e-07
6.05646e-07
6.35393e-07
6.6229e-07
6.8602e-07
7.06362e-07
7.23164e-07
7.36316e-07
7.45745e-07
7.51395e-07
7.5323e-07
7.51227e-07
7.45376e-07
7.3568e-07
7.22163e-07
7.04871e-07
6.83877e-07
6.59286e-07
6.31242e-07
5.99931e-07
5.65587e-07
5.28493e-07
4.88988e-07
4.47461e-07
4.04357e-07
3.60172e-07
3.15453e-07
2.70804e-07
2.26889e-07
1.84452e-07
1.44344e-07
1.07551e-07
7.51817e-08
4.83597e-08
2.79325e-08
1.40551e-08
5.9212e-09
1.97028e-09
4.67764e-10
6.45228e-11
3.21769e-12
1.87389e-14
6.44127e-07
6.60126e-07
6.86251e-07
7.22316e-07
7.6666e-07
8.16415e-07
8.69136e-07
9.22718e-07
9.75404e-07
1.02578e-06
1.07274e-06
1.11545e-06
1.15328e-06
1.18579e-06
1.21264e-06
1.23359e-06
1.24847e-06
1.25713e-06
1.2595e-06
1.25549e-06
1.24508e-06
1.22824e-06
1.20499e-06
1.17539e-06
1.13955e-06
1.09762e-06
1.04984e-06
9.96484e-07
9.37941e-07
8.74673e-07
8.07237e-07
7.3629e-07
6.62591e-07
5.87009e-07
5.10537e-07
4.34307e-07
3.5962e-07
2.87982e-07
2.21127e-07
1.60985e-07
1.09524e-07
6.83828e-08
3.83307e-08
1.87798e-08
7.74964e-09
2.54361e-09
5.99239e-10
8.23419e-11
4.0989e-12
2.3851e-14
1.0982e-06
1.12214e-06
1.15836e-06
1.2078e-06
1.26932e-06
1.33924e-06
1.4142e-06
1.4912e-06
1.56765e-06
1.64134e-06
1.71052e-06
1.77377e-06
1.83001e-06
1.87842e-06
1.91837e-06
1.94938e-06
1.97109e-06
1.98323e-06
1.98558e-06
1.97799e-06
1.96034e-06
1.93257e-06
1.89466e-06
1.84668e-06
1.78875e-06
1.72109e-06
1.64402e-06
1.55797e-06
1.46353e-06
1.36141e-06
1.2525e-06
1.13787e-06
1.01879e-06
8.96771e-07
7.73572e-07
6.51285e-07
5.32357e-07
4.19614e-07
3.1619e-07
2.25294e-07
1.49738e-07
9.12876e-08
5.00231e-08
2.40523e-08
9.79055e-09
3.18577e-09
7.46954e-10
1.02398e-10
5.09133e-12
2.96022e-14
1.76507e-06
1.80181e-06
1.85066e-06
1.91622e-06
1.99744e-06
2.09064e-06
2.19152e-06
2.29608e-06
2.4007e-06
2.50229e-06
2.59821e-06
2.68633e-06
2.76491e-06
2.8326e-06
2.88831e-06
2.93121e-06
2.96065e-06
2.9761e-06
2.97713e-06
2.96343e-06
2.93474e-06
2.89088e-06
2.83178e-06
2.75745e-06
2.66801e-06
2.56373e-06
2.44505e-06
2.31259e-06
2.16718e-06
2.00994e-06
1.84223e-06
1.66578e-06
1.48271e-06
1.29557e-06
1.10747e-06
9.22089e-07
7.43729e-07
5.7719e-07
4.27438e-07
2.98994e-07
1.95084e-07
1.16845e-07
6.29703e-08
2.98825e-08
1.20578e-08
3.90438e-09
9.13287e-10
1.25062e-10
6.21494e-12
3.61483e-14
2.69351e-06
2.75199e-06
2.8174e-06
2.90278e-06
3.0051e-06
3.12367e-06
3.25301e-06
3.38801e-06
3.52401e-06
3.65682e-06
3.78284e-06
3.899e-06
4.00278e-06
4.09209e-06
4.16526e-06
4.22093e-06
4.25798e-06
4.27553e-06
4.27281e-06
4.24921e-06
4.20426e-06
4.13757e-06
4.0489e-06
3.93816e-06
3.80545e-06
3.65105e-06
3.47553e-06
3.27974e-06
3.0649e-06
2.83266e-06
2.58518e-06
2.32521e-06
2.0562e-06
1.78244e-06
1.50912e-06
1.24237e-06
9.89126e-07
7.56705e-07
5.52049e-07
3.8059e-07
2.4509e-07
1.45087e-07
7.72683e-08
3.63479e-08
1.46069e-08
4.72863e-09
1.10759e-09
1.51723e-10
7.51673e-12
4.34604e-14
3.92297e-06
4.01854e-06
4.10636e-06
4.21506e-06
4.34082e-06
4.48588e-06
4.64475e-06
4.81141e-06
4.98011e-06
5.14558e-06
5.30312e-06
5.44865e-06
5.57869e-06
5.69029e-06
5.781e-06
5.84875e-06
5.89184e-06
5.9088e-06
5.8984e-06
5.85961e-06
5.79155e-06
5.69351e-06
5.565e-06
5.40573e-06
5.21567e-06
4.99513e-06
4.7448e-06
4.46588e-06
4.16012e-06
3.83e-06
3.47887e-06
3.11107e-06
2.73214e-06
2.34893e-06
1.96966e-06
1.60379e-06
1.26154e-06
9.53019e-07
6.8691e-07
4.68809e-07
2.99616e-07
1.76081e-07
9.29602e-08
4.3555e-08
1.75687e-08
5.74657e-09
1.36519e-09
1.89489e-10
9.3775e-12
5.09803e-14
5.47397e-06
5.63096e-06
5.75016e-06
5.88689e-06
6.03983e-06
6.21118e-06
6.39891e-06
6.59631e-06
6.79673e-06
6.99385e-06
7.18189e-06
7.35568e-06
7.51069e-06
7.64298e-06
7.74916e-06
7.82633e-06
7.87196e-06
7.88389e-06
7.86019e-06
7.79922e-06
7.69956e-06
7.56001e-06
7.37965e-06
7.1579e-06
6.89454e-06
6.58985e-06
6.24472e-06
5.86079e-06
5.44065e-06
4.98802e-06
4.50799e-06
4.00727e-06
3.49436e-06
2.97967e-06
2.47538e-06
1.99498e-06
1.5523e-06
1.16015e-06
8.28477e-07
5.6281e-07
4.20529e-07
2.31571e-07
1.24449e-07
5.99618e-08
2.54094e-08
8.98694e-09
2.41641e-09
4.16415e-10
3.08222e-11
2.24006e-13
7.33888e-06
7.59225e-06
7.75593e-06
7.92764e-06
8.11327e-06
8.31014e-06
8.5242e-06
8.74926e-06
8.97795e-06
9.20308e-06
9.41784e-06
9.61602e-06
9.79202e-06
9.94084e-06
1.00581e-05
1.01397e-05
1.01824e-05
1.0183e-05
1.01387e-05
1.00471e-05
9.906e-06
9.7135e-06
9.46813e-06
9.16887e-06
8.81524e-06
8.4075e-06
7.94681e-06
7.43551e-06
6.87734e-06
6.27783e-06
5.64454e-06
4.98741e-06
4.31888e-06
3.65383e-06
3.00915e-06
2.40268e-06
1.85174e-06
1.3711e-06
9.70884e-07
6.54459e-07
4.82179e-07
2.66876e-07
1.41538e-07
6.79788e-08
2.90469e-08
1.04166e-08
2.83988e-09
4.91712e-10
3.51232e-11
2.3091e-13
9.47555e-06
9.87022e-06
1.00957e-05
1.03112e-05
1.05328e-05
1.07596e-05
1.09967e-05
1.12446e-05
1.14959e-05
1.17429e-05
1.1978e-05
1.21941e-05
1.23846e-05
1.25434e-05
1.26649e-05
1.27442e-05
1.27767e-05
1.27581e-05
1.26847e-05
1.2553e-05
1.23599e-05
1.21026e-05
1.17789e-05
1.13872e-05
1.09268e-05
1.03978e-05
9.80201e-06
9.14257e-06
8.42493e-06
7.65702e-06
6.84967e-06
6.01694e-06
5.17607e-06
4.34714e-06
3.55208e-06
2.81306e-06
2.15027e-06
1.5795e-06
1.11001e-06
7.42467e-07
5.40294e-07
2.98919e-07
1.57447e-07
7.5694e-08
3.25665e-08
1.17427e-08
3.21255e-09
5.59268e-10
4.01306e-11
2.6403e-13
1.18058e-05
1.23926e-05
1.27001e-05
1.29701e-05
1.32329e-05
1.34947e-05
1.37524e-05
1.40172e-05
1.42839e-05
1.45448e-05
1.4792e-05
1.50176e-05
1.52141e-05
1.53744e-05
1.5492e-05
1.55606e-05
1.55745e-05
1.55283e-05
1.54169e-05
1.52357e-05
1.49804e-05
1.46473e-05
1.42333e-05
1.37361e-05
1.31547e-05
1.24894e-05
1.17424e-05
1.09183e-05
1.00247e-05
9.07252e-06
8.07664e-06
7.05596e-06
6.03313e-06
5.0338e-06
4.08493e-06
3.21254e-06
2.43896e-06
1.7801e-06
1.24359e-06
8.27239e-07
5.97824e-07
3.31051e-07
1.74228e-07
8.40592e-08
3.63844e-08
1.14574e-08
3.02245e-09
5.0917e-10
3.38637e-11
1.2784e-13
1.42201e-05
1.50477e-05
1.54579e-05
1.57933e-05
1.61023e-05
1.64001e-05
1.66833e-05
1.69592e-05
1.72337e-05
1.74999e-05
1.775e-05
1.79757e-05
1.8169e-05
1.83218e-05
1.84267e-05
1.84761e-05
1.84633e-05
1.83813e-05
1.82239e-05
1.79852e-05
1.76596e-05
1.72422e-05
1.6729e-05
1.61172e-05
1.54052e-05
1.45936e-05
1.36854e-05
1.26871e-05
1.16086e-05
1.04646e-05
9.27444e-06
8.06228e-06
6.8565e-06
5.68822e-06
4.58905e-06
3.58822e-06
2.70933e-06
1.96773e-06
1.36893e-06
9.07802e-07
6.5318e-07
3.63791e-07
1.91825e-07
9.29204e-08
4.03511e-08
1.27327e-08
3.41616e-09
5.82641e-10
3.95712e-11
1.52265e-13
1.65876e-05
1.76928e-05
1.8222e-05
1.86315e-05
1.8991e-05
1.93244e-05
1.96372e-05
1.99236e-05
2.01986e-05
2.04619e-05
2.07062e-05
2.09234e-05
2.11048e-05
2.1242e-05
2.13263e-05
2.13494e-05
2.1303e-05
2.11792e-05
2.09703e-05
2.06689e-05
2.02684e-05
1.97626e-05
1.91465e-05
1.84165e-05
1.7571e-05
1.66109e-05
1.55402e-05
1.43672e-05
1.31048e-05
1.17716e-05
1.03916e-05
8.9944e-06
7.61392e-06
6.28633e-06
5.04722e-06
3.9282e-06
2.95348e-06
2.13726e-06
1.48269e-06
9.81603e-07
7.03704e-07
3.95039e-07
2.08788e-07
1.01443e-07
4.41706e-08
1.39476e-08
3.75627e-09
6.40865e-10
4.39305e-11
1.69485e-13
1.87697e-05
2.01669e-05
2.08227e-05
2.13102e-05
2.17213e-05
2.20894e-05
2.24265e-05
2.27297e-05
2.30024e-05
2.32568e-05
2.34888e-05
2.36906e-05
2.38538e-05
2.39693e-05
2.40278e-05
2.402e-05
2.39365e-05
2.37682e-05
2.35061e-05
2.31415e-05
2.26665e-05
2.20739e-05
2.13578e-05
2.05139e-05
1.95405e-05
1.84388e-05
1.72141e-05
1.58767e-05
1.44425e-05
1.29338e-05
1.13794e-05
9.81387e-06
8.27606e-06
6.80651e-06
5.44403e-06
4.22186e-06
3.16419e-06
2.28381e-06
1.58148e-06
1.04612e-06
7.47432e-07
4.22967e-07
2.24013e-07
1.09153e-07
4.77023e-08
1.51327e-08
4.11473e-09
7.12219e-10
4.97244e-11
1.89863e-13
2.06341e-05
2.23079e-05
2.30849e-05
2.36468e-05
2.41065e-05
2.45061e-05
2.48628e-05
2.51815e-05
2.54562e-05
2.56985e-05
2.59145e-05
2.60976e-05
2.62395e-05
2.63311e-05
2.63622e-05
2.6323e-05
2.62029e-05
2.59919e-05
2.56798e-05
2.5257e-05
2.47142e-05
2.40433e-05
2.32376e-05
2.22924e-05
2.12058e-05
1.99796e-05
1.86203e-05
1.71399e-05
1.55572e-05
1.38979e-05
1.21949e-05
1.04872e-05
8.81762e-06
7.23028e-06
5.76629e-06
4.45991e-06
3.33501e-06
2.4029e-06
1.66216e-06
1.09925e-06
7.83201e-07
4.46819e-07
2.37255e-07
1.16056e-07
5.10244e-08
1.63746e-08
4.51395e-09
8.03379e-10
4.76895e-11
4.88391e-13
2.20668e-05
2.39699e-05
2.48482e-05
2.5472e-05
2.59717e-05
2.63968e-05
2.67685e-05
2.70951e-05
2.73761e-05
2.76099e-05
2.78096e-05
2.79744e-05
2.80962e-05
2.81656e-05
2.81723e-05
2.81054e-05
2.79541e-05
2.77072e-05
2.73538e-05
2.68832e-05
2.62856e-05
2.55518e-05
2.46747e-05
2.36491e-05
2.24732e-05
2.11492e-05
1.96845e-05
1.80928e-05
1.63951e-05
1.46199e-05
1.28033e-05
1.09875e-05
9.21856e-06
7.54298e-06
6.0035e-06
4.63491e-06
3.4606e-06
2.49066e-06
1.72196e-06
1.13907e-06
8.09602e-07
4.66037e-07
2.48317e-07
1.22075e-07
5.41202e-08
1.76664e-08
5.00141e-09
9.24261e-10
5.73333e-11
6.12642e-13
2.2991e-05
2.505e-05
2.59981e-05
2.66642e-05
2.71909e-05
2.76329e-05
2.8014e-05
2.83447e-05
2.86273e-05
2.8859e-05
2.90469e-05
2.91975e-05
2.93042e-05
2.93574e-05
2.93463e-05
2.92598e-05
2.90866e-05
2.88149e-05
2.84332e-05
2.79303e-05
2.72958e-05
2.652e-05
2.55955e-05
2.45168e-05
2.32821e-05
2.1894e-05
2.03606e-05
1.86966e-05
1.69245e-05
1.50747e-05
1.31853e-05
1.13006e-05
9.46869e-06
7.7375e-06
6.15071e-06
4.74334e-06
3.53841e-06
2.54512e-06
1.75924e-06
1.16416e-06
8.25134e-07
4.79538e-07
2.56456e-07
1.26704e-07
5.66573e-08
1.88336e-08
5.57695e-09
1.1354e-09
1.41756e-10
3.17473e-12
2.33222e-05
2.54395e-05
2.64138e-05
2.70955e-05
2.76318e-05
2.80793e-05
2.84632e-05
2.87944e-05
2.90762e-05
2.93069e-05
2.94899e-05
2.9634e-05
2.97341e-05
2.97803e-05
2.97618e-05
2.96673e-05
2.94851e-05
2.92036e-05
2.88109e-05
2.82956e-05
2.76471e-05
2.68557e-05
2.59136e-05
2.48155e-05
2.35595e-05
2.21483e-05
2.05903e-05
1.89007e-05
1.71024e-05
1.52265e-05
1.33119e-05
1.14036e-05
9.55027e-06
7.80037e-06
6.19784e-06
4.77773e-06
3.56287e-06
2.56214e-06
1.77088e-06
1.17205e-06
8.27694e-07
4.85597e-07
2.60249e-07
1.28938e-07
5.79601e-08
1.94651e-08
5.93793e-09
1.32642e-09
2.15594e-10
1.64563e-11
2.30383e-05
2.51059e-05
2.60578e-05
2.67249e-05
2.72512e-05
2.76919e-05
2.80713e-05
2.83996e-05
2.86793e-05
2.89079e-05
2.90927e-05
2.92402e-05
2.93439e-05
2.93938e-05
2.93796e-05
2.92899e-05
2.91134e-05
2.88385e-05
2.84536e-05
2.79475e-05
2.73098e-05
2.65309e-05
2.56032e-05
2.45215e-05
2.32839e-05
2.18931e-05
2.03573e-05
1.86912e-05
1.69173e-05
1.50662e-05
1.3176e-05
1.1291e-05
9.45926e-06
7.72864e-06
6.14274e-06
4.73649e-06
3.53279e-06
2.54075e-06
1.75604e-06
1.16198e-06
8.16852e-07
4.82908e-07
2.58631e-07
1.27989e-07
5.73996e-08
1.90335e-08
5.69019e-09
1.19592e-09
1.52289e-10
4.354e-12
2.21623e-05
2.40807e-05
2.49649e-05
2.55895e-05
2.60879e-05
2.65102e-05
2.68782e-05
2.72002e-05
2.74756e-05
2.77034e-05
2.78971e-05
2.8056e-05
2.81719e-05
2.82352e-05
2.82357e-05
2.81627e-05
2.80052e-05
2.77521e-05
2.73925e-05
2.69158e-05
2.6312e-05
2.55721e-05
2.4689e-05
2.36576e-05
2.24761e-05
2.11469e-05
1.96775e-05
1.80818e-05
1.63807e-05
1.46031e-05
1.27849e-05
1.09685e-05
9.19984e-06
7.52537e-06
5.98765e-06
4.62126e-06
3.44938e-06
2.48188e-06
1.71548e-06
1.13463e-06
7.94033e-07
4.71906e-07
2.5197e-07
1.24136e-07
5.52115e-08
1.78618e-08
5.10858e-09
9.62016e-10
9.28761e-11
6.50374e-13
2.07751e-05
2.2468e-05
2.32513e-05
2.3813e-05
2.42699e-05
2.46652e-05
2.50163e-05
2.5328e-05
2.5595e-05
2.5829e-05
2.60367e-05
2.62116e-05
2.63451e-05
2.64281e-05
2.64507e-05
2.64027e-05
2.6274e-05
2.60544e-05
2.57336e-05
2.53021e-05
2.47506e-05
2.40711e-05
2.3257e-05
2.23036e-05
2.12092e-05
1.99757e-05
1.86097e-05
1.71235e-05
1.55361e-05
1.38733e-05
1.2168e-05
1.04594e-05
8.79025e-06
7.20449e-06
5.74303e-06
4.43983e-06
3.31845e-06
2.38988e-06
1.6525e-06
1.09262e-06
7.61253e-07
4.54482e-07
2.41801e-07
1.18482e-07
5.22012e-08
1.6531e-08
4.5886e-09
8.22452e-10
7.52189e-11
4.95935e-13
1.89435e-05
2.0362e-05
2.10242e-05
2.15106e-05
2.1918e-05
2.22805e-05
2.26103e-05
2.29053e-05
2.31685e-05
2.34133e-05
2.36354e-05
2.38273e-05
2.39804e-05
2.40856e-05
2.41337e-05
2.41155e-05
2.40215e-05
2.38427e-05
2.35701e-05
2.3195e-05
2.27095e-05
2.21065e-05
2.13801e-05
2.05262e-05
1.95432e-05
1.84326e-05
1.71998e-05
1.58553e-05
1.44153e-05
1.29022e-05
1.13451e-05
9.77841e-06
8.24111e-06
6.77355e-06
5.41424e-06
4.19609e-06
3.14289e-06
2.26703e-06
1.56898e-06
1.03753e-06
7.20082e-07
4.3204e-07
2.29207e-07
1.11792e-07
4.88818e-08
1.52532e-08
4.16396e-09
7.26126e-10
5.14819e-11
2.04443e-13
1.67828e-05
1.79088e-05
1.84439e-05
1.88516e-05
1.92065e-05
1.95334e-05
1.98382e-05
2.01154e-05
2.03802e-05
2.06333e-05
2.0867e-05
2.10733e-05
2.12437e-05
2.13696e-05
2.14425e-05
2.14541e-05
2.13962e-05
2.12609e-05
2.10403e-05
2.07273e-05
2.03151e-05
1.97977e-05
1.91702e-05
1.84292e-05
1.7573e-05
1.66029e-05
1.55231e-05
1.4342e-05
1.30731e-05
1.17348e-05
1.03516e-05
8.95314e-06
7.57317e-06
6.24777e-06
5.01227e-06
3.89786e-06
2.92831e-06
2.11738e-06
1.46787e-06
9.71488e-07
6.71814e-07
4.05477e-07
2.14673e-07
1.04353e-07
4.54044e-08
1.40375e-08
3.79228e-09
6.48084e-10
4.41723e-11
1.72277e-13
1.44243e-05
1.52703e-05
1.56854e-05
1.60182e-05
1.63221e-05
1.6613e-05
1.6888e-05
1.71546e-05
1.74192e-05
1.76752e-05
1.79147e-05
1.81294e-05
1.83114e-05
1.84529e-05
1.85461e-05
1.85838e-05
1.85591e-05
1.84652e-05
1.82958e-05
1.8045e-05
1.77073e-05
1.72779e-05
1.67529e-05
1.61295e-05
1.54063e-05
1.45842e-05
1.36665e-05
1.26597e-05
1.15742e-05
1.04248e-05
9.23109e-06
8.01736e-06
6.81199e-06
5.64593e-06
4.55053e-06
3.5546e-06
2.6813e-06
1.94548e-06
1.35228e-06
8.96435e-07
6.1774e-07
3.75248e-07
1.98303e-07
9.6131e-08
4.17002e-08
1.28311e-08
3.45125e-09
5.89881e-10
3.96924e-11
1.52665e-13
1.2007e-05
1.26084e-05
1.29196e-05
1.31865e-05
1.34441e-05
1.36994e-05
1.3949e-05
1.42052e-05
1.44629e-05
1.47142e-05
1.49514e-05
1.51666e-05
1.53523e-05
1.55017e-05
1.56081e-05
1.56654e-05
1.56678e-05
1.561e-05
1.54868e-05
1.52938e-05
1.50267e-05
1.46818e-05
1.42561e-05
1.37475e-05
1.31551e-05
1.24793e-05
1.17227e-05
1.08901e-05
9.98938e-06
9.03168e-06
8.0321e-06
7.00964e-06
5.98703e-06
4.98977e-06
4.04458e-06
3.17712e-06
2.40922e-06
1.75629e-06
1.22557e-06
8.14839e-07
5.60234e-07
3.42484e-07
1.80577e-07
8.72408e-08
3.77515e-08
1.15603e-08
3.06111e-09
5.19707e-10
3.48442e-11
1.3042e-13
9.66293e-06
1.00682e-05
1.02961e-05
1.05084e-05
1.07253e-05
1.0946e-05
1.11761e-05
1.14166e-05
1.166e-05
1.18986e-05
1.21248e-05
1.23316e-05
1.25123e-05
1.26611e-05
1.27724e-05
1.28413e-05
1.28631e-05
1.28338e-05
1.27495e-05
1.26068e-05
1.24027e-05
1.21343e-05
1.17996e-05
1.13972e-05
1.09264e-05
1.03876e-05
9.78264e-06
9.11507e-06
8.39053e-06
7.61718e-06
6.80608e-06
5.97143e-06
5.13052e-06
4.30337e-06
3.51171e-06
2.77735e-06
2.12003e-06
1.55501e-06
1.09114e-06
7.29122e-07
5.01767e-07
3.09195e-07
1.62846e-07
7.83422e-08
3.37581e-08
1.21582e-08
3.32921e-09
5.86645e-10
4.30613e-11
2.87832e-13
7.50436e-06
7.76466e-06
7.92989e-06
8.09864e-06
8.28013e-06
8.4719e-06
8.68036e-06
8.89942e-06
9.1216e-06
9.33969e-06
9.54693e-06
9.73716e-06
9.90482e-06
1.0045e-05
1.01532e-05
1.02258e-05
1.02591e-05
1.02501e-05
1.01962e-05
1.00948e-05
9.9438e-06
9.74141e-06
9.48623e-06
9.17731e-06
8.8143e-06
8.39764e-06
7.92865e-06
7.40989e-06
6.84534e-06
6.24072e-06
5.6038e-06
4.94468e-06
4.27586e-06
3.61222e-06
2.97047e-06
2.36818e-06
1.82227e-06
1.34702e-06
9.52244e-07
6.41359e-07
4.42703e-07
2.77072e-07
1.46307e-07
7.01907e-08
3.00646e-08
1.08162e-08
2.95469e-09
5.1129e-10
3.6408e-11
2.38501e-13
5.61266e-06
5.77369e-06
5.89384e-06
6.02809e-06
6.17772e-06
6.34524e-06
6.52879e-06
6.72161e-06
6.91698e-06
7.10855e-06
7.29056e-06
7.45788e-06
7.60603e-06
7.73113e-06
7.82984e-06
7.89929e-06
7.93701e-06
7.94086e-06
7.90893e-06
7.83962e-06
7.73153e-06
7.58353e-06
7.39475e-06
7.16468e-06
6.89324e-06
6.58082e-06
6.22847e-06
5.83801e-06
5.41221e-06
4.95499e-06
4.4716e-06
3.96891e-06
3.45551e-06
2.94181e-06
2.4399e-06
1.96307e-06
1.52486e-06
1.13773e-06
8.11524e-07
5.51694e-07
3.79169e-07
2.44e-07
1.30096e-07
6.24467e-08
2.65576e-08
9.4646e-09
2.56632e-09
4.43327e-10
3.18391e-11
2.10687e-13
4.03323e-06
4.13089e-06
4.21938e-06
4.32623e-06
4.44962e-06
4.59207e-06
4.74806e-06
4.91147e-06
5.07647e-06
5.23779e-06
5.39073e-06
5.53124e-06
5.65589e-06
5.76177e-06
5.84649e-06
5.90803e-06
5.94471e-06
5.95511e-06
5.93801e-06
5.8924e-06
5.81745e-06
5.71248e-06
5.57705e-06
5.41094e-06
5.2142e-06
4.98726e-06
4.73093e-06
4.44653e-06
4.13598e-06
3.80191e-06
3.44782e-06
3.07817e-06
2.69861e-06
2.316e-06
1.93854e-06
1.57556e-06
1.23707e-06
9.32983e-07
6.71968e-07
4.597e-07
2.93935e-07
1.71986e-07
9.06378e-08
4.24046e-08
1.71055e-08
5.59827e-09
1.32945e-09
1.84396e-10
9.11511e-12
4.95148e-14
2.77659e-06
2.83602e-06
2.90201e-06
2.9862e-06
3.08705e-06
3.20402e-06
3.33156e-06
3.46443e-06
3.59791e-06
3.72778e-06
3.85045e-06
3.96289e-06
4.06261e-06
4.14757e-06
4.21615e-06
4.26702e-06
4.29911e-06
4.31155e-06
4.3036e-06
4.27469e-06
4.22434e-06
4.15221e-06
4.0581e-06
3.94198e-06
3.804e-06
3.64454e-06
3.46424e-06
3.26407e-06
3.04536e-06
2.80989e-06
2.55992e-06
2.29831e-06
2.02861e-06
1.75514e-06
1.48309e-06
1.21852e-06
9.68224e-07
7.39309e-07
5.38584e-07
3.71594e-07
2.3964e-07
1.41578e-07
7.53598e-08
3.54516e-08
1.42566e-08
4.61722e-09
1.08117e-09
1.48026e-10
7.33236e-12
4.24269e-14
1.82426e-06
1.8614e-06
1.9108e-06
1.97571e-06
2.05623e-06
2.14864e-06
2.24853e-06
2.3518e-06
2.45482e-06
2.55445e-06
2.64806e-06
2.73354e-06
2.80921e-06
2.87373e-06
2.92608e-06
2.96544e-06
2.9912e-06
3.00285e-06
2.99999e-06
2.98232e-06
2.9496e-06
2.90167e-06
2.8385e-06
2.76012e-06
2.66672e-06
2.55862e-06
2.43632e-06
2.30051e-06
2.15214e-06
1.99237e-06
1.82269e-06
1.64489e-06
1.46115e-06
1.27408e-06
1.08679e-06
9.02946e-07
7.26771e-07
5.62902e-07
4.1609e-07
2.9084e-07
1.89739e-07
1.1355e-07
6.11965e-08
2.90339e-08
1.1715e-08
3.79265e-09
8.86592e-10
1.2128e-10
6.01712e-12
3.49232e-14
1.13793e-06
1.16205e-06
1.19883e-06
1.24805e-06
1.30937e-06
1.37902e-06
1.45355e-06
1.52989e-06
1.60538e-06
1.67785e-06
1.74551e-06
1.80698e-06
1.86123e-06
1.90744e-06
1.94504e-06
1.97356e-06
1.99268e-06
2.00213e-06
2.00172e-06
1.99131e-06
1.9708e-06
1.94013e-06
1.89933e-06
1.84846e-06
1.7877e-06
1.7173e-06
1.63762e-06
1.54916e-06
1.45256e-06
1.34859e-06
1.2382e-06
1.12251e-06
1.00286e-06
8.80773e-07
7.58042e-07
6.36748e-07
5.19308e-07
4.08458e-07
3.07161e-07
2.18529e-07
1.45092e-07
8.83702e-08
4.83987e-08
2.32532e-08
9.46009e-09
3.07655e-09
7.20763e-10
9.8689e-11
4.8983e-12
2.84317e-14
6.69097e-07
6.85229e-07
7.11887e-07
7.48017e-07
7.92452e-07
8.42239e-07
8.94856e-07
9.48149e-07
1.00033e-06
1.04998e-06
1.096e-06
1.13757e-06
1.17411e-06
1.20517e-06
1.23046e-06
1.24976e-06
1.2629e-06
1.26977e-06
1.27028e-06
1.26439e-06
1.25205e-06
1.23326e-06
1.20806e-06
1.17652e-06
1.13876e-06
1.09498e-06
1.04543e-06
9.90432e-07
9.30407e-07
8.65856e-07
7.97379e-07
7.2567e-07
6.51519e-07
5.75824e-07
4.99591e-07
4.23952e-07
3.50195e-07
2.79786e-07
2.1436e-07
1.55758e-07
1.05799e-07
6.59654e-08
3.69334e-08
1.80733e-08
7.45085e-09
2.44316e-09
5.74886e-10
7.88666e-11
3.91672e-12
2.27345e-14
3.67165e-07
3.78038e-07
3.96425e-07
4.21819e-07
4.52201e-07
4.8564e-07
5.20461e-07
5.55271e-07
5.88969e-07
6.20721e-07
6.49918e-07
6.76131e-07
6.99063e-07
7.18512e-07
7.34342e-07
7.46459e-07
7.54801e-07
7.59324e-07
7.59995e-07
7.568e-07
7.49735e-07
7.38812e-07
7.24062e-07
7.05542e-07
6.83338e-07
6.57572e-07
6.28405e-07
5.96046e-07
5.60752e-07
5.22831e-07
4.82645e-07
4.40608e-07
3.97184e-07
3.52887e-07
3.08273e-07
2.63948e-07
2.2057e-07
1.78863e-07
1.39633e-07
1.03809e-07
7.24207e-08
4.64999e-08
2.68144e-08
1.3471e-08
5.66702e-09
1.88292e-09
4.46261e-10
6.14209e-11
3.0537e-12
1.7727e-14
1.85395e-07
1.92665e-07
2.04854e-07
2.21355e-07
2.40644e-07
2.61463e-07
2.82777e-07
3.03772e-07
3.23844e-07
3.42561e-07
3.59632e-07
3.74861e-07
3.88125e-07
3.99343e-07
4.08467e-07
4.15464e-07
4.20317e-07
4.23011e-07
4.23539e-07
4.21901e-07
4.18101e-07
4.1215e-07
4.04071e-07
3.93902e-07
3.81693e-07
3.67518e-07
3.51472e-07
3.33674e-07
3.14272e-07
2.93443e-07
2.71391e-07
2.48351e-07
2.24579e-07
2.00361e-07
1.75995e-07
1.51799e-07
1.28104e-07
1.05253e-07
8.36113e-08
6.35859e-08
4.56463e-08
3.0327e-08
1.8157e-08
9.46202e-09
4.10446e-09
1.39315e-09
3.34188e-10
4.62492e-11
2.30375e-12
1.33767e-14
8.43601e-08
8.90303e-08
9.65766e-08
1.06412e-07
1.17593e-07
1.29388e-07
1.41231e-07
1.5271e-07
1.63539e-07
1.73534e-07
1.82577e-07
1.90597e-07
1.97554e-07
2.03424e-07
2.08194e-07
2.11857e-07
2.14409e-07
2.15849e-07
2.16177e-07
2.15395e-07
2.13508e-07
2.10524e-07
2.06455e-07
2.01324e-07
1.95157e-07
1.87994e-07
1.79884e-07
1.7089e-07
1.6109e-07
1.50575e-07
1.39452e-07
1.2784e-07
1.15874e-07
1.03699e-07
9.14672e-08
7.93377e-08
6.74712e-08
5.60288e-08
4.51702e-08
3.50589e-08
2.58736e-08
1.78233e-08
1.1153e-08
6.10079e-09
2.76987e-09
9.7368e-10
2.38544e-10
3.3334e-11
1.66575e-12
9.67641e-15
3.3541e-08
3.63112e-08
4.05685e-08
4.58093e-08
5.15679e-08
5.74836e-08
6.32972e-08
6.88364e-08
7.39945e-08
7.87091e-08
8.2945e-08
8.66838e-08
8.99162e-08
9.26384e-08
9.48491e-08
9.65481e-08
9.7736e-08
9.8414e-08
9.85826e-08
9.82442e-08
9.74014e-08
9.60585e-08
9.42223e-08
9.19025e-08
8.91124e-08
8.58703e-08
8.21993e-08
7.81286e-08
7.36939e-08
6.89374e-08
6.39082e-08
5.86618e-08
5.32598e-08
4.77687e-08
4.22589e-08
3.68031e-08
3.14742e-08
2.63437e-08
2.14799e-08
1.69472e-08
1.28081e-08
9.12781e-09
5.98369e-09
3.47062e-09
1.68018e-09
6.25335e-10
1.5921e-10
2.26621e-11
1.13909e-12
6.62227e-15
1.1134e-08
1.262e-08
1.46688e-08
1.70563e-08
1.95821e-08
2.21012e-08
2.45213e-08
2.67893e-08
2.88766e-08
3.07691e-08
3.24604e-08
3.39479e-08
3.52311e-08
3.63105e-08
3.71867e-08
3.78607e-08
3.83331e-08
3.86048e-08
3.86762e-08
3.85486e-08
3.8223e-08
3.77014e-08
3.69866e-08
3.60824e-08
3.49943e-08
3.37295e-08
3.22972e-08
3.07089e-08
2.89788e-08
2.71235e-08
2.51624e-08
2.31174e-08
2.10127e-08
1.88747e-08
1.67312e-08
1.46108e-08
1.25425e-08
1.05544e-08
8.67331e-09
6.92353e-09
5.32672e-09
3.90199e-09
2.66762e-09
1.64504e-09
8.63311e-10
3.50845e-10
9.5926e-11
1.41897e-11
7.21919e-13
4.20348e-15
2.87021e-09
3.52474e-09
4.31682e-09
5.18672e-09
6.06875e-09
6.92145e-09
7.72313e-09
8.46378e-09
9.13933e-09
9.7484e-09
1.02908e-08
1.07669e-08
1.11771e-08
1.15219e-08
1.18019e-08
1.20173e-08
1.21686e-08
1.22561e-08
1.22799e-08
1.22405e-08
1.21383e-08
1.19739e-08
1.17483e-08
1.14625e-08
1.11186e-08
1.07186e-08
1.02656e-08
9.76334e-09
9.2162e-09
8.62953e-09
8.00949e-09
7.36304e-09
6.6979e-09
6.02243e-09
5.34547e-09
4.6762e-09
4.02383e-09
3.39743e-09
2.80557e-09
2.25612e-09
1.75592e-09
1.31057e-09
9.24365e-10
6.00531e-10
3.42571e-10
1.56515e-10
4.85166e-11
7.82023e-12
4.10038e-13
2.39624e-15
5.12919e-10
7.16474e-10
9.35433e-10
1.16086e-09
1.37937e-09
1.58455e-09
1.77416e-09
1.94763e-09
2.10501e-09
2.24646e-09
2.37222e-09
2.48249e-09
2.57746e-09
2.65729e-09
2.7221e-09
2.772e-09
2.80709e-09
2.82744e-09
2.83312e-09
2.8242e-09
2.80079e-09
2.76305e-09
2.71118e-09
2.64548e-09
2.56635e-09
2.47434e-09
2.37011e-09
2.25454e-09
2.12865e-09
1.99367e-09
1.85102e-09
1.70231e-09
1.54932e-09
1.39397e-09
1.2383e-09
1.08443e-09
9.3449e-10
7.90576e-10
6.54686e-10
5.28658e-10
4.14108e-10
3.12367e-10
2.24416e-10
1.50827e-10
9.17564e-11
4.71743e-11
1.75525e-11
3.41069e-12
1.95658e-13
1.15737e-15
5.21864e-11
8.73082e-11
1.21796e-10
1.54979e-10
1.85862e-10
2.14268e-10
2.4026e-10
2.63933e-10
2.85359e-10
3.04597e-10
3.2169e-10
3.36674e-10
3.49576e-10
3.60421e-10
3.69227e-10
3.7601e-10
3.80781e-10
3.83554e-10
3.84334e-10
3.83136e-10
3.79973e-10
3.74865e-10
3.67843e-10
3.58945e-10
3.48229e-10
3.35765e-10
3.21648e-10
3.05994e-10
2.88943e-10
2.70661e-10
2.51342e-10
2.31203e-10
2.10485e-10
1.8945e-10
1.68373e-10
1.47542e-10
1.27243e-10
1.07763e-10
8.93719e-11
7.23197e-11
5.68278e-11
4.30803e-11
3.12159e-11
2.13197e-11
1.3413e-11
7.44379e-12
3.29553e-12
8.76638e-13
6.67139e-14
4.1885e-16
1.99386e-12