/*--------------------------------*- C++ -*----------------------------------*\
| =========                 |                                                 |
| \\      /  F ield         | foam-extend: Open Source CFD                    |
|  \\    /   O peration     | Version:     4.0                                |
|   \\  /    A nd           | Web:         http://www.foam-extend.org         |
|    \\/     M anipulation  |                                                 |
\*---------------------------------------------------------------------------*/
FoamFile
{
    version     2.0;
    format      ascii;
    class       volScalarField;
    location    "0.0014";
    object      omega;
}
// * * * * * * * * * * * * * * * * * * * * * * * * * * * * * * * * * * * * * //

dimensions      [0 0 -1 0 0 0 0];

internalField   nonuniform List<scalar> 
28770
(
1.87595e+07
1.87595e+07
1.87595e+07
1.87595e+07
1.87595e+07
1.87595e+07
1.87595e+07
1.87595e+07
1.87595e+07
1.87595e+07
1.87595e+07
1.87595e+07
1.87595e+07
1.87595e+07
1.87595e+07
1.87595e+07
1.87595e+07
1.87595e+07
1.87595e+07
1.87595e+07
1.87595e+07
1.87595e+07
1.87595e+07
1.87595e+07
1.87595e+07
1.87595e+07
1.87595e+07
1.87595e+07
1.87595e+07
1.87595e+07
1.87595e+07
1.87595e+07
1.87595e+07
1.87595e+07
1.87595e+07
1.87595e+07
1.87595e+07
1.87595e+07
1.87595e+07
1.87595e+07
1.87595e+07
1.87595e+07
1.87595e+07
1.87595e+07
1.87595e+07
1.87595e+07
1.87595e+07
1.87595e+07
1.87595e+07
1.87595e+07
2.70005e+06
3.18573e+06
3.23008e+06
3.23475e+06
3.23538e+06
3.23549e+06
3.23552e+06
3.23553e+06
3.23554e+06
3.23554e+06
3.23554e+06
3.23554e+06
3.23554e+06
3.23554e+06
3.23554e+06
3.23554e+06
3.23554e+06
3.23554e+06
3.23554e+06
3.23554e+06
3.23555e+06
3.23555e+06
3.23555e+06
3.23555e+06
3.23555e+06
3.23555e+06
3.23555e+06
3.23555e+06
3.23556e+06
3.23556e+06
3.23556e+06
3.23556e+06
3.23556e+06
3.23557e+06
3.23557e+06
3.23557e+06
3.23558e+06
3.23558e+06
3.23559e+06
3.2356e+06
3.23561e+06
3.23564e+06
3.23571e+06
3.23588e+06
3.23647e+06
3.23895e+06
3.25309e+06
3.36214e+06
4.43129e+06
1.79872e+07
679359
1.01711e+06
1.08473e+06
1.09848e+06
1.10156e+06
1.10235e+06
1.10259e+06
1.10267e+06
1.1027e+06
1.10272e+06
1.10272e+06
1.10273e+06
1.10273e+06
1.10273e+06
1.10273e+06
1.10273e+06
1.10273e+06
1.10273e+06
1.10273e+06
1.10273e+06
1.10273e+06
1.10273e+06
1.10273e+06
1.10274e+06
1.10274e+06
1.10274e+06
1.10274e+06
1.10274e+06
1.10274e+06
1.10274e+06
1.10274e+06
1.10274e+06
1.10275e+06
1.10275e+06
1.10276e+06
1.10276e+06
1.10277e+06
1.10279e+06
1.10282e+06
1.10288e+06
1.10299e+06
1.10323e+06
1.1038e+06
1.10532e+06
1.10992e+06
1.12604e+06
1.19193e+06
1.50335e+06
3.24975e+06
1.79872e+07
228578
430987
496266
516077
522231
524266
524997
525284
525407
525464
525492
525507
525515
525520
525523
525525
525526
525527
525528
525529
525530
525530
525531
525532
525533
525534
525535
525537
525539
525542
525546
525552
525560
525571
525588
525614
525656
525728
525853
526084
526535
527474
529574
534673
548186
587441
712736
1.16001e+06
3.12318e+06
1.79872e+07
96091.8
214056
266506
287524
295775
299082
300463
301071
301355
301495
301567
301607
301629
301643
301651
301656
301660
301663
301665
301666
301668
301669
301671
301672
301674
301677
301680
301684
301689
301696
301707
301721
301741
301772
301819
301892
302009
302204
302541
303146
304286
306540
311248
321675
346216
407822
574727
1.08477e+06
3.10621e+06
1.79872e+07
47900.8
118590
157748
176963
185969
190164
192150
193118
193607
193864
194004
194084
194131
194159
194177
194189
194197
194202
194206
194210
194213
194215
194218
194222
194226
194231
194237
194246
194257
194273
194295
194326
194372
194439
194540
194698
194947
195355
196041
197235
199391
203436
211345
227494
262028
340003
530301
1.06584e+06
3.10319e+06
1.79872e+07
27075.8
71373.6
99957.4
116257
125020
129626
132045
133333
134033
134423
134647
134779
134859
134909
134941
134963
134977
134988
134996
135002
135007
135013
135018
135024
135032
135041
135053
135069
135091
135121
135162
135221
135306
135430
135617
135900
136343
137050
138208
140157
143533
149561
160674
181884
224023
312388
514660
1.06034e+06
3.10247e+06
1.79872e+07
16755.7
45820.9
66741.9
80077.1
88057.7
92684.3
95335.7
96857.7
97740.6
98261
98573.7
98765.7
98886.2
98963.6
99014.5
99048.9
99072.9
99090.2
99103.4
99114
99123.3
99132.3
99141.6
99152.2
99164.9
99180.9
99201.5
99228.7
99265.4
99315.7
99385.4
99483.5
99623.6
99827
100127
100577
101266
102340
104052
106840
111487
119425
133350
158533
205910
300422
508653
1.05851e+06
3.10226e+06
1.79872e+07
11095.9
31053.5
46507.1
57239.2
64233.6
68627.3
71336.4
72996.8
74017.2
74649.6
75046.5
75299.5
75463.5
75571.8
75644.8
75695.2
75730.9
75757.1
75777.3
75793.8
75808.3
75822.3
75837.1
75853.7
75873.7
75898.7
75931
75973.5
76030.5
76108.1
76214.9
76363.9
76574.5
76876.3
77315
77962.5
78933.4
80413.6
82710.1
86338.3
92182.2
101793
117978
146060
196853
294905
506131
1.05781e+06
3.10218e+06
1.79872e+07
7737.23
21973.8
33573.7
42180.5
48183.8
52211.6
54853.2
56566.3
57674
58392.4
58861.8
59171.7
59378.9
59519.5
59616.6
59685
59734.4
59771.2
59800
59823.9
59845.1
59865.7
59887.4
59912
59941.4
59978.2
60025.4
60087.3
60169.7
60281.1
60433.2
60643.4
60937.1
61352.6
61947.6
62810.9
64080.5
65974
68840.2
73246.6
80135.5
91111.8
109010
139109
192073
292163
504950
1.05749e+06
3.10214e+06
1.79872e+07
5620.02
16107.3
24961.4
31898.6
37001.5
40614.9
43111.1
44810.8
45960.2
46736.7
47262.9
47622
47869.2
48041.4
48163
48250.6
48315
48364
48402.8
48435.3
48464.7
48493.3
48523.6
48557.9
48598.9
48649.9
48715.1
48800.2
48912.8
49063.6
49267.8
49547.1
49933
50471.6
51231.7
52316.1
53881.6
56169.3
59555.8
64638.4
72386.3
84417.4
103551
135003
189318
290597
504255
1.05729e+06
3.10211e+06
1.79872e+07
4223.02
12169
19063.2
24680.7
29000.2
32199.8
34510.1
36150.8
37305.1
38113.8
38680.5
39079
39361.1
39562.5
39708
39814.9
39895.1
39957.1
40006.9
40049.4
40088.1
40126.1
40166.4
40212.1
40266.7
40334.3
40420.3
40531.7
40678.2
40872.9
41134
41487.5
41970.3
42635.4
43560.5
44859.7
46702.8
49346.1
53181.7
58820.1
67235.1
80033.6
100003
132304
187406
289344
503515
1.05694e+06
3.10203e+06
1.79872e+07
3267.53
9438.35
14903.7
19489.4
23148.6
25963
28073
29627.3
30759.3
31578.7
32170.5
32598.4
32909.1
33136.3
33304
33429.6
33525.6
33601.1
33662.8
33716
33764.9
33813.5
33865.1
33923.7
33993.4
34079.5
34188.4
34328.7
34511.7
34753
35073.7
35503.5
36083.7
36873.3
37956.2
39454.3
41545.5
44493.9
48697
54766.4
63666.4
76973.2
97433.3
130150
185537
287618
501897
1.05566e+06
3.10148e+06
1.79872e+07
2595.21
7494.33
11899.8
15677.1
18791.3
21262.4
23174.7
24628.5
25720.2
26533.8
27137.6
27585.5
27918.5
28167.4
28354.9
28498
28609.3
28698.3
28772.1
28836.6
28896.7
28956.5
29020.5
29093
29179.1
29285
29418.3
29588.9
29810
30099
30479.8
30985
31659.7
32566.8
33794.9
35469.9
37773.4
40970.7
45457.3
51837.4
61061.3
74639.8
95265.3
127945
182957
284182
497108
1.04961e+06
3.09626e+06
1.79872e+07
2111.48
6080.82
9690.21
12839.5
15501.2
17671.8
19398.4
20747.6
21788.4
22584.3
23189.9
23649.6
23998.9
24265.2
24469.9
24628.8
24754.6
24856.6
24942.6
25018.6
25090.1
25161.8
25238.7
25325.9
25429.1
25555.6
25714
25915.5
26174.7
26511.1
26950.6
27528.1
28291.3
29306
30663
32490
34968
38358.2
43045.8
49621.3
59054.6
72683
93159.6
125285
178916
277001
482943
1.02051e+06
3.04088e+06
1.79872e+07
1757.43
5035.88
8040.61
10699.2
12987.4
14900.2
16458.4
17705.4
18690.5
19461.3
20060.8
20525.7
20886
21166
21384.9
21557.8
21696.8
21811.2
21908.9
21996.4
22079.3
22163.2
22253.2
22355.3
22476
22623.2
22806.6
23038.6
23335.2
23717.2
24212.1
24856.9
25700.9
26811.2
28279.8
30233.6
32850.5
36383
41195.3
47817.1
54472.9
67538.2
85773.1
113803
159323
239323
397218
770864
2.00889e+06
1.20425e+07
1495
4253.71
6795.2
9068.46
11050.1
12744.3
14153.9
15305.4
16234
16975.6
17564
18028.9
18395.9
18685.9
18916.4
19101.4
19252.2
19378.1
19486.9
19585.4
19679.6
19775.3
19878.4
19995.3
20133.1
20300.6
20508.4
20769.7
21101.7
21526.4
22072.6
22778.3
23694
24887.4
26450.1
28507.5
31233.6
34873.7
39781.6
46483.9
53180.4
66033.4
83959.8
111266
155241
231994
383222
747015
2.01429e+06
1.24056e+07
1298.76
3663.13
5847.7
7817.99
9554.65
11061.2
12341
13405.7
14280.1
14991.1
15565.2
16026.7
16396.8
16694
16933.6
17128.7
17289.8
17426
17545.2
17654.1
17759
17866.1
17981.8
18112.8
18267.1
18454
18684.7
18973.5
19338.3
19802
20394.3
21153.9
22131.8
23395.7
25036.1
27176.4
29986.1
33703.7
38672.8
45403.5
52116.3
64746.6
82370.1
109046
151813
226423
373599
730641
1.98885e+06
1.23852e+07
1151.32
3215.13
5124.1
6856.48
8397.41
9746.41
10913.9
11902.2
12726.6
13407.7
13966.2
14421.8
14792.7
15094.5
15341.2
15544.5
15714.5
15859.9
15988.3
16106.7
16221.6
16339.4
16466.8
16611.1
16780.8
16985.5
17237.4
17551.2
17945.5
18443.9
19076.7
19883
20913.7
22236
23939.2
26144
29015.7
32786.3
37789.2
44519.1
51224.4
63643.5
80982.2
107092
148664
233641
388272
766389
2.12094e+06
1.69429e+07
1040.51
2875.26
4571.91
6118.43
7504.01
8726.42
9795.99
10717.7
11497.6
12150.7
12693.6
13142.3
13512.2
13816.9
14068.9
14278.8
14456.2
14609.5
14746
14872.9
14996.8
15124.2
15262.3
15418.7
15602.2
15823
16093.8
16429.7
16850
17378.5
18046
18891.6
19966
21335.7
23088.3
25341.9
28257.8
32061.6
37077.7
43787.1
50466.9
62688.3
79765.4
105398
146113
229179
379537
745825
2.07418e+06
1.69162e+07
957.692
2618.99
4153.38
5556.23
6820.12
7943.03
8930.36
9793.86
10535.6
11164.1
11692.4
12134
12501.9
12808.2
13064
13279.2
13462.6
13622.4
13766
13900.2
14031.8
14167.8
14315.2
14482.2
14677.8
14912.6
15199.7
15554.7
15996.9
16550.9
17247.2
18125
19234.7
20641.7
22432.2
24721.5
27667
31488.7
36502.3
43176.7
49816.6
61846.6
78672.7
103883
143902
225622
373967
737765
2.06689e+06
1.69155e+07
896.712
2428.71
3841.23
5135.19
6305.85
7351.74
8276.11
9089.09
9798.02
10405.5
10921.1
11356.1
11721.8
12028.8
12287.3
12506.4
12694.6
12859.7
13009
13149.3
13287.5
13430.5
13585.9
13761.7
13967.5
14214.1
14514.7
14885.3
15345.6
15920.2
16639.7
17543.1
18680.3
20115.8
21934.2
24248.5
27212.4
31040.4
36040.4
42669
49258.5
61090.5
77648.6
102406
141669
221755
367262
723817
2.02449e+06
1.67945e+07
853.177
2291.85
3615.87
4830.18
5932.09
6920.69
7798.59
8572.3
9252.8
9843.57
10349
10778.4
11141.9
11449.2
11709.5
11931.5
12123.3
12292.5
12446.3
12591.3
12734.7
12883.4
13045
13227.9
13441.7
13697.5
14008.8
14391.7
14866.1
15456.5
16193.7
17116.5
18274.1
19730.4
21568.5
23899.3
26873.3
30700.1
35679.9
42257.2
48794.2
60411.6
76666.2
100873
139112
216603
356890
696687
2.0754e+06
1.1926e+07
824.034
2199.61
3463.53
4623.46
5678.12
6627.1
7472.72
8220.24
8878.24
9455.32
9953.56
10379
10740.8
11048.1
11309.5
11533.6
11727.9
11900
12056.9
12205.5
12352.6
12505.4
12671.5
12859.6
13079.2
13341.7
13660.7
14052.4
14536.8
15138.5
15888.2
16824.4
17996.2
19466.5
21317.4
23658.3
26636.9
30458.8
35417.6
41946.5
48441.9
59833.3
75765.1
99329.3
136222
209843
341376
658744
1.98797e+06
1.18222e+07
807.097
2145.64
3374.15
4501.91
5528.5
6453.83
7280.11
8012.09
8656.95
9223.93
9717.41
10140.6
10501.4
10808.6
11070.8
11295.9
11491.8
11665.7
11824.5
11975.2
12124.6
12279.9
12448.9
12640.1
12863.3
13129.9
13453.6
13850.6
14341.1
14949.7
15706.9
16651.2
17831.4
19309.9
21168.2
23514.4
26494.6
30311.6
35254.3
41747.4
48227.5
59408.5
75059.3
98017
133490
202575
320497
584127
1.29159e+06
5.51174e+06
801.666
2128.07
3344.91
4462.01
5479.27
6396.71
7216.53
7943.32
8583.91
9147.02
9638.71
10061.3
10421.8
10729
10991.3
11216.9
11413.3
11587.7
11747.2
11898.6
12048.7
12204.9
12374.8
12567.1
12791.5
13059.5
13384.8
13783.6
14276.2
14887
15646.8
16593.8
17776.7
19257.9
21118.6
23466.5
26447
30261.9
35198.5
41678.2
48183.4
59206
74708.9
97330
131954
198580
307095
524328
966626
1.97568e+06
807.533
2146.32
3374.91
4502.67
5529.2
6454.45
7280.64
8012.52
8657.27
9224.14
9717.59
10140.8
10501.6
10808.8
11070.9
11296
11491.9
11665.8
11824.6
11975.2
12124.6
12279.9
12448.9
12640
12863.2
13129.9
13453.5
13850.6
14341.1
14949.6
15706.8
16651.1
17831.3
19309.8
21168.1
23514.2
26494.4
30311.4
35254
41747.1
48316.7
59274.6
74829
97568.3
132495
201081
315619
563171
1.22973e+06
4.58259e+06
824.898
2200.94
3465.01
4624.93
5679.48
6628.3
7473.74
8221.06
8878.81
9455.74
9953.93
10379.4
10741.1
11048.3
11309.8
11533.8
11728.1
11900.2
12057
12205.6
12352.6
12505.4
12671.5
12859.5
13079.1
13341.6
13660.6
14052.3
14536.6
15138.3
15888
16824.2
17996
19466.2
21317.2
23658
26636.5
30458.4
35417.1
41945.9
48604.4
59597.8
75379.3
98624.1
134786
207986
336469
643759
1.63941e+06
1.17237e+07
854.442
2293.77
3618
4832.28
5934.01
6922.38
7800
8573.38
9253.55
9844.19
10349.5
10778.9
11142.3
11449.5
11709.8
11931.8
12123.6
12292.8
12446.4
12591.5
12734.8
12883.5
13045
13227.9
13441.6
13697.5
14008.7
14391.6
14865.9
15456.3
16193.5
17116.2
18273.8
19730.1
21568.1
23898.8
26872.7
30699.5
35679.2
42256.5
49016.1
60106.4
76199.6
100092
137693
215065
353606
689363
1.74978e+06
1.192e+07
898.329
2431.14
3843.89
5137.78
6308.21
7353.78
8277.78
9090.26
9798.92
10406.3
10921.8
11356.7
11722.3
12029.3
12287.7
12506.7
12694.9
12860
13009.2
13149.5
13287.6
13430.6
13585.9
13761.7
13967.4
14214
14514.5
14885.1
15345.4
15919.9
16639.4
17542.8
18679.9
20115.4
21933.7
24247.9
27211.8
31039.7
36039.6
42668.1
49528.4
60740.1
77151.3
101649
140442
220617
365045
717809
1.99373e+06
1.63316e+07
959.599
2621.82
4156.44
5559.17
6822.76
7945.26
8932.06
9795.13
10536.7
11165
11693.1
12134.7
12502.5
12808.8
13064.5
13279.5
13462.9
13622.7
13766.2
13900.3
14031.9
14167.8
14315.2
14482.2
14677.7
14912.5
15199.5
15554.4
15996.7
16550.6
17246.8
18124.7
19234.3
20641.3
22431.7
24720.9
27666.4
31488
36501.5
43175.8
50131.4
61458.2
78154.6
103149
142812
224735
372549
735413
2.0632e+06
1.69144e+07
1042.63
2878.37
4575.23
6121.56
7506.75
8728.66
9797.7
10719.1
11498.7
12151.7
12694.4
13143
13512.8
13817.5
14069.3
14279.2
14456.6
14609.7
14746.3
14873.1
14996.9
15124.3
15262.3
15418.7
15602.1
15822.9
16093.6
16429.5
16849.7
17378.2
18045.6
18891.2
19965.6
21335.2
23087.8
25341.3
28257.1
32060.9
37076.9
43786.2
50832.3
62254.5
79206.8
104627
144987
228251
378017
743491
2.07211e+06
1.69161e+07
1153.58
3218.38
5127.51
6859.63
8400.1
9748.47
10915.6
11903.6
12727.8
13408.6
13967
14422.5
14793.2
15095.1
15341.7
15544.9
15714.8
15860.2
15988.5
16106.9
16221.7
16339.4
16466.8
16611.1
16780.7
16985.4
17237.2
17550.9
17945.2
18443.6
19076.3
19882.5
20913.2
22235.5
23938.7
26143.4
29015
32785.6
37788.5
44518.3
51652.8
63148.9
80354.4
106215
147325
232396
385598
758755
2.09671e+06
1.69198e+07
1301.08
3666.4
5851.04
7820.99
9557.12
11063.1
12342.5
13407
14281.2
14992
15566
16027.3
16397.3
16694.4
16934
17129
17290.1
17426.3
17545.4
17654.2
17759.1
17866.2
17981.8
18112.8
18267
18453.8
18684.5
18973.2
19338
19801.6
20393.9
21153.5
22131.4
23395.2
25035.6
27175.8
29985.5
33703.1
38672.1
45402.8
52625
64173.8
81652.4
108037
150222
223899
368241
716080
1.93328e+06
1.21638e+07
1497.3
4256.85
6798.32
9071.18
11052.2
12746
14155.3
15306.6
16235
16976.4
17564.7
18029.5
18396.3
18686.3
18916.8
19101.7
19252.4
19378.3
19487.1
19585.5
19679.7
19775.4
19878.4
19995.2
20133
20300.5
20508.2
20769.5
21101.5
21526.1
22072.3
22777.9
23693.6
24886.9
26449.6
28507
31233.1
34873.1
39781
46483.3
53794
65364.1
83137.5
110119
153467
229090
378389
739932
2.00772e+06
1.24058e+07
1759.63
5038.78
8043.4
10701.5
12989.2
14901.7
16459.6
17706.4
18691.3
19461.9
20061.3
20526.1
20886.3
21166.3
21385.1
21558
21696.9
21811.4
21909
21996.5
22079.4
22163.2
22253.2
22355.2
22475.9
22623
22806.4
23038.4
23335
23716.9
24211.8
24856.5
25700.5
26810.8
28279.3
30233.1
32850.1
36382.6
41194.9
47816.7
55247
66757
84838.8
112495
157187
235348
389127
755719
2.01695e+06
1.23779e+07
2113.51
6083.39
9692.58
12841.3
15502.6
17672.9
19399.4
20748.4
21789
22584.8
23190.3
23649.9
23999.1
24265.5
24470
24629
24754.7
24856.7
24942.6
25018.7
25090.1
25161.8
25238.7
25325.8
25429
25555.5
25713.8
25915.3
26174.5
26510.9
26950.3
27527.7
28291
29305.6
30662.7
32489.7
34967.7
38357.8
43045.5
49621
59054.3
72682.8
93159.5
125285
178916
277001
482943
1.02051e+06
3.04088e+06
1.79872e+07
2597.02
7496.51
11901.6
15678.4
18792.4
21263.2
23175.4
24629.1
25720.7
26534.1
27137.9
27585.7
27918.7
28167.5
28355
28498.1
28609.4
28698.3
28772.2
28836.6
28896.7
28956.5
29020.5
29092.9
29179.1
29284.9
29418.2
29588.8
29809.8
30098.8
30479.6
30984.8
31659.5
32566.5
33794.6
35469.6
37773.1
40970.5
45457
51837.2
61061.1
74639.6
95265.2
127945
182957
284182
497108
1.04961e+06
3.09626e+06
1.79872e+07
3269.07
9440.08
14905.1
19490.3
23149.3
25963.6
28073.5
29627.6
30759.6
31578.9
32170.6
32598.5
32909.2
33136.3
33304
33429.6
33525.6
33601.1
33662.8
33715.9
33764.9
33813.4
33865.1
33923.6
33993.4
34079.4
34188.3
34328.5
34511.6
34752.8
35073.6
35503.3
36083.5
36873
37956
39454.1
41545.3
44493.7
48696.8
54766.2
63666.2
76973.1
97433.2
130150
185537
287618
501897
1.05566e+06
3.10148e+06
1.79872e+07
4224.27
12170.2
19064.1
24681.3
29000.6
32200.1
34510.3
36151
37305.2
38113.9
38680.6
39079
39361.1
39562.5
39708
39814.9
39895.1
39957
40006.9
40049.4
40088
40126
40166.4
40212.1
40266.6
40334.2
40420.2
40531.6
40678.1
40872.8
41133.9
41487.4
41970.1
42635.3
43560.4
44859.5
46702.6
49346
53181.6
58819.9
67235
80033.5
100003
132304
187406
289344
503515
1.05694e+06
3.10203e+06
1.79872e+07
5620.95
16108
24961.7
31898.8
37001.7
40615
43111.2
44810.8
45960.2
46736.7
47262.9
47621.9
47869.1
48041.3
48163
48250.5
48315
48363.9
48402.7
48435.3
48464.6
48493.3
48523.5
48557.8
48598.9
48649.9
48715.1
48800.2
48912.7
49063.6
49267.8
49547.1
49932.9
50471.5
51231.6
52316
53881.5
56169.2
59555.7
64638.4
72386.2
84417.3
103550
135003
189318
290597
504255
1.05729e+06
3.10211e+06
1.79872e+07
7737.82
21974
33573.7
42180.4
48183.7
52211.6
54853.1
56566.2
57673.9
58392.4
58861.8
59171.6
59378.8
59519.4
59616.5
59684.9
59734.3
59771.2
59800
59823.8
59845.1
59865.7
59887.4
59912
59941.4
59978.1
60025.3
60087.2
60169.7
60281
60433.2
60643.3
60937.1
61352.6
61947.6
62810.9
64080.4
65973.9
68840.1
73246.6
80135.5
91111.8
109010
139109
192073
292163
504950
1.05749e+06
3.10214e+06
1.79872e+07
11096.1
31053
46506.5
57238.8
64233.3
68627.1
71336.2
72996.7
74017.1
74649.5
75046.5
75299.4
75463.4
75571.7
75644.8
75695.1
75730.8
75757
75777.2
75793.7
75808.3
75822.3
75837
75853.7
75873.7
75898.7
75931
75973.5
76030.5
76108.1
76214.9
76363.8
76574.5
76876.3
77315
77962.5
78933.4
80413.6
82710
86338.3
92182.1
101793
117978
146060
196853
294905
506131
1.05781e+06
3.10218e+06
1.79872e+07
16755.3
45818.9
66740.6
80076.4
88057.3
92684
95335.5
96857.6
97740.5
98260.9
98573.6
98765.6
98886.1
98963.5
99014.4
99048.8
99072.8
99090.2
99103.3
99114
99123.3
99132.2
99141.6
99152.2
99164.9
99180.8
99201.5
99228.7
99265.4
99315.7
99385.4
99483.5
99623.7
99827
100127
100577
101266
102340
104052
106840
111487
119425
133350
158533
205910
300422
508653
1.05851e+06
3.10226e+06
1.79872e+07
27074.6
71368
99955.2
116256
125019
129625
132045
133333
134033
134423
134647
134779
134859
134909
134941
134963
134977
134988
134996
135002
135007
135013
135018
135024
135032
135041
135053
135069
135091
135121
135162
135221
135306
135430
135617
135900
136343
137050
138208
140157
143533
149561
160674
181884
224023
312388
514660
1.06034e+06
3.10247e+06
1.79872e+07
47900.2
118588
157747
176962
185969
190164
192150
193118
193607
193864
194004
194084
194131
194159
194177
194189
194196
194202
194206
194210
194213
194215
194218
194222
194226
194231
194237
194246
194257
194273
194295
194326
194372
194439
194540
194698
194947
195355
196041
197235
199391
203436
211345
227494
262028
340003
530301
1.06584e+06
3.10319e+06
1.79872e+07
96091.5
214056
266505
287523
295775
299082
300463
301071
301355
301495
301567
301607
301629
301643
301651
301656
301660
301663
301665
301666
301668
301669
301671
301672
301674
301677
301680
301684
301689
301696
301707
301721
301741
301772
301819
301892
302009
302204
302541
303146
304286
306540
311248
321675
346216
407822
574727
1.08477e+06
3.10621e+06
1.79872e+07
228578
430987
496266
516077
522230
524266
524997
525284
525407
525464
525492
525507
525515
525520
525523
525525
525526
525527
525528
525529
525530
525530
525531
525532
525533
525534
525535
525537
525539
525542
525546
525552
525560
525571
525588
525614
525656
525728
525853
526084
526535
527474
529574
534673
548186
587441
712736
1.16001e+06
3.12318e+06
1.79872e+07
679359
1.01711e+06
1.08473e+06
1.09848e+06
1.10156e+06
1.10235e+06
1.10259e+06
1.10267e+06
1.1027e+06
1.10272e+06
1.10272e+06
1.10273e+06
1.10273e+06
1.10273e+06
1.10273e+06
1.10273e+06
1.10273e+06
1.10273e+06
1.10273e+06
1.10273e+06
1.10273e+06
1.10273e+06
1.10273e+06
1.10274e+06
1.10274e+06
1.10274e+06
1.10274e+06
1.10274e+06
1.10274e+06
1.10274e+06
1.10274e+06
1.10274e+06
1.10275e+06
1.10275e+06
1.10276e+06
1.10276e+06
1.10277e+06
1.10279e+06
1.10282e+06
1.10288e+06
1.10299e+06
1.10323e+06
1.1038e+06
1.10532e+06
1.10992e+06
1.12604e+06
1.19193e+06
1.50335e+06
3.24975e+06
1.79872e+07
2.70005e+06
3.18573e+06
3.23008e+06
3.23475e+06
3.23538e+06
3.23549e+06
3.23552e+06
3.23553e+06
3.23554e+06
3.23554e+06
3.23554e+06
3.23554e+06
3.23554e+06
3.23554e+06
3.23554e+06
3.23554e+06
3.23554e+06
3.23554e+06
3.23554e+06
3.23554e+06
3.23555e+06
3.23555e+06
3.23555e+06
3.23555e+06
3.23555e+06
3.23555e+06
3.23555e+06
3.23555e+06
3.23556e+06
3.23556e+06
3.23556e+06
3.23556e+06
3.23556e+06
3.23557e+06
3.23557e+06
3.23557e+06
3.23558e+06
3.23558e+06
3.23559e+06
3.2356e+06
3.23561e+06
3.23564e+06
3.23571e+06
3.23588e+06
3.23647e+06
3.23895e+06
3.25309e+06
3.36214e+06
4.43129e+06
1.79872e+07
1.87595e+07
1.87595e+07
1.87595e+07
1.87595e+07
1.87595e+07
1.87595e+07
1.87595e+07
1.87595e+07
1.87595e+07
1.87595e+07
1.87595e+07
1.87595e+07
1.87595e+07
1.87595e+07
1.87595e+07
1.87595e+07
1.87595e+07
1.87595e+07
1.87595e+07
1.87595e+07
1.87595e+07
1.87595e+07
1.87595e+07
1.87595e+07
1.87595e+07
1.87595e+07
1.87595e+07
1.87595e+07
1.87595e+07
1.87595e+07
1.87595e+07
1.87595e+07
1.87595e+07
1.87595e+07
1.87595e+07
1.87595e+07
1.87595e+07
1.87595e+07
1.87595e+07
1.87595e+07
1.87595e+07
1.87595e+07
1.87595e+07
1.87595e+07
1.87595e+07
1.87595e+07
1.87595e+07
1.87595e+07
1.87595e+07
1.87595e+07
6.64496e+07
6.76663e+07
6.76661e+07
6.76661e+07
6.7666e+07
6.7666e+07
6.76659e+07
6.7666e+07
6.7666e+07
6.7666e+07
6.7666e+07
6.7666e+07
6.7666e+07
6.7666e+07
6.7666e+07
6.7666e+07
6.7666e+07
6.7666e+07
6.7666e+07
6.76637e+07
3.10466e+06
3.316e+06
3.32434e+06
3.32455e+06
3.32456e+06
3.32455e+06
3.32131e+06
3.32443e+06
3.32456e+06
3.32456e+06
3.32456e+06
3.32456e+06
3.32456e+06
3.32456e+06
3.32456e+06
3.32456e+06
3.32455e+06
3.32449e+06
3.3223e+06
3.25296e+06
1.15729e+07
1.195e+07
1.19517e+07
1.19517e+07
1.19517e+07
1.19517e+07
1.19517e+07
1.19517e+07
1.19517e+07
1.19517e+07
1.19517e+07
1.19517e+07
1.19517e+07
1.19517e+07
1.19517e+07
1.19517e+07
1.19517e+07
1.19517e+07
1.19513e+07
1.19093e+07
1.87595e+07
1.87595e+07
1.87595e+07
1.87595e+07
1.87595e+07
1.87595e+07
1.87595e+07
1.87595e+07
1.87595e+07
1.87595e+07
1.87595e+07
1.87595e+07
1.87595e+07
1.87595e+07
1.87595e+07
1.87595e+07
1.87595e+07
1.87595e+07
1.87595e+07
1.87595e+07
1.87595e+07
1.87595e+07
1.87595e+07
1.87595e+07
1.87595e+07
1.87595e+07
1.87595e+07
1.87595e+07
1.87595e+07
1.87595e+07
1.87595e+07
1.87595e+07
1.87595e+07
1.87595e+07
1.87595e+07
1.87595e+07
1.87595e+07
1.87595e+07
1.87595e+07
1.87595e+07
1.87595e+07
1.87595e+07
1.87595e+07
1.87595e+07
1.87595e+07
1.87595e+07
1.87595e+07
1.87595e+07
1.87595e+07
1.87595e+07
1.87595e+07
1.87595e+07
1.87595e+07
1.87595e+07
1.87595e+07
1.87595e+07
1.87595e+07
1.87595e+07
1.87595e+07
1.87595e+07
1.87595e+07
1.87595e+07
1.87595e+07
1.87595e+07
1.87595e+07
1.87595e+07
1.87595e+07
1.87595e+07
1.87595e+07
1.87595e+07
1.87595e+07
1.87595e+07
1.87595e+07
1.87595e+07
1.87595e+07
1.87595e+07
1.87595e+07
1.87595e+07
1.87595e+07
1.87595e+07
1.87595e+07
1.87595e+07
1.87595e+07
1.87595e+07
1.87595e+07
1.87595e+07
1.87595e+07
1.87595e+07
1.87595e+07
1.87595e+07
1.87595e+07
1.87595e+07
1.87595e+07
1.87595e+07
1.87595e+07
1.87595e+07
1.87595e+07
1.87595e+07
1.87595e+07
1.87595e+07
1.79872e+07
4.43129e+06
3.36208e+06
3.25301e+06
3.23887e+06
3.23639e+06
3.23581e+06
3.23564e+06
3.23557e+06
3.23555e+06
3.23554e+06
3.23553e+06
3.23553e+06
3.23553e+06
3.23553e+06
3.23553e+06
3.23553e+06
3.23553e+06
3.23553e+06
3.23553e+06
3.23553e+06
3.23553e+06
3.23554e+06
3.23554e+06
3.23554e+06
3.23554e+06
3.23554e+06
3.23554e+06
3.23554e+06
3.23554e+06
3.23554e+06
3.23554e+06
3.23554e+06
3.23554e+06
3.23554e+06
3.23554e+06
3.23554e+06
3.23554e+06
3.23554e+06
3.23554e+06
3.23554e+06
3.23554e+06
3.23554e+06
3.23554e+06
3.23554e+06
3.23554e+06
3.23554e+06
3.23554e+06
3.23554e+06
3.23554e+06
3.23554e+06
3.23554e+06
3.23554e+06
3.23554e+06
3.23554e+06
3.23554e+06
3.23554e+06
3.23554e+06
3.23554e+06
3.23554e+06
3.23554e+06
3.23554e+06
3.23554e+06
3.23554e+06
3.23554e+06
3.23554e+06
3.23554e+06
3.23554e+06
3.23554e+06
3.23554e+06
3.23554e+06
3.23554e+06
3.23554e+06
3.23554e+06
3.23554e+06
3.23554e+06
3.23554e+06
3.23554e+06
3.23554e+06
3.23554e+06
3.23554e+06
3.23554e+06
3.23554e+06
3.23554e+06
3.23554e+06
3.23554e+06
3.23554e+06
3.23554e+06
3.23554e+06
3.23554e+06
3.23554e+06
3.23554e+06
3.23554e+06
3.23554e+06
3.23554e+06
3.23554e+06
3.23554e+06
3.23554e+06
3.23554e+06
3.23554e+06
1.79872e+07
3.24982e+06
1.50335e+06
1.1919e+06
1.126e+06
1.10987e+06
1.10527e+06
1.10376e+06
1.10319e+06
1.10295e+06
1.10284e+06
1.10279e+06
1.10276e+06
1.10274e+06
1.10274e+06
1.10273e+06
1.10273e+06
1.10273e+06
1.10273e+06
1.10273e+06
1.10273e+06
1.10273e+06
1.10273e+06
1.10273e+06
1.10273e+06
1.10273e+06
1.10273e+06
1.10273e+06
1.10273e+06
1.10273e+06
1.10273e+06
1.10273e+06
1.10273e+06
1.10273e+06
1.10273e+06
1.10273e+06
1.10273e+06
1.10273e+06
1.10273e+06
1.10273e+06
1.10273e+06
1.10273e+06
1.10273e+06
1.10273e+06
1.10273e+06
1.10273e+06
1.10273e+06
1.10273e+06
1.10273e+06
1.10273e+06
1.10273e+06
1.10273e+06
1.10273e+06
1.10273e+06
1.10273e+06
1.10273e+06
1.10273e+06
1.10273e+06
1.10273e+06
1.10273e+06
1.10273e+06
1.10273e+06
1.10273e+06
1.10273e+06
1.10273e+06
1.10273e+06
1.10273e+06
1.10273e+06
1.10273e+06
1.10273e+06
1.10273e+06
1.10273e+06
1.10273e+06
1.10273e+06
1.10273e+06
1.10273e+06
1.10273e+06
1.10273e+06
1.10273e+06
1.10273e+06
1.10273e+06
1.10273e+06
1.10273e+06
1.10273e+06
1.10273e+06
1.10273e+06
1.10273e+06
1.10273e+06
1.10273e+06
1.10273e+06
1.10273e+06
1.10273e+06
1.10273e+06
1.10273e+06
1.10273e+06
1.10273e+06
1.10273e+06
1.10273e+06
1.10273e+06
1.10273e+06
1.79872e+07
3.12327e+06
1.16004e+06
712736
587421
548154
534636
529536
527436
526498
526050
525821
525698
525630
525590
525566
525551
525542
525537
525533
525531
525529
525528
525528
525527
525527
525527
525527
525527
525527
525527
525527
525527
525527
525527
525527
525527
525527
525527
525527
525527
525527
525527
525527
525527
525527
525527
525527
525527
525527
525527
525527
525527
525527
525527
525527
525527
525527
525527
525527
525527
525527
525527
525527
525527
525527
525527
525527
525527
525527
525527
525527
525527
525527
525527
525527
525527
525527
525527
525527
525527
525527
525527
525527
525527
525527
525527
525527
525527
525527
525527
525527
525527
525527
525527
525527
525527
525527
525527
525527
1.79872e+07
3.10631e+06
1.08482e+06
574752
407825
346202
321651
311220
306509
304255
303117
302513
302179
301987
301872
301802
301758
301730
301711
301699
301690
301684
301680
301677
301675
301673
301672
301671
301670
301670
301669
301669
301668
301668
301668
301668
301667
301667
301667
301667
301667
301667
301667
301667
301667
301667
301667
301666
301666
301666
301666
301666
301666
301666
301666
301666
301666
301666
301666
301666
301665
301665
301665
301665
301665
301665
301665
301665
301665
301665
301665
301665
301665
301665
301665
301665
301665
301665
301665
301665
301665
301665
301665
301665
301665
301665
301665
301665
301665
301665
301665
301665
301665
301665
301665
301665
301665
301665
301665
301665
1.79872e+07
3.10329e+06
1.0659e+06
530343
340026
262034
227487
211330
203416
199370
197214
196022
195339
194934
194688
194534
194435
194371
194328
194298
194278
194264
194253
194245
194239
194235
194231
194228
194225
194223
194222
194220
194219
194218
194217
194217
194216
194216
194215
194215
194215
194214
194214
194214
194214
194213
194213
194213
194213
194213
194212
194212
194212
194212
194212
194212
194211
194211
194211
194211
194211
194211
194211
194211
194211
194210
194210
194210
194210
194210
194210
194210
194210
194210
194210
194210
194210
194210
194210
194210
194210
194210
194210
194210
194210
194210
194210
194210
194210
194210
194210
194210
194210
194210
194210
194211
194211
194211
194211
194211
1.79872e+07
3.10258e+06
1.06041e+06
514713
312427
224047
181895
160675
149557
143526
140151
138204
137049
136346
135908
135628
135446
135325
135243
135186
135146
135117
135096
135080
135067
135057
135050
135043
135038
135033
135030
135027
135024
135022
135020
135018
135017
135016
135015
135014
135014
135013
135012
135012
135011
135011
135011
135010
135010
135010
135009
135009
135008
135008
135008
135008
135007
135007
135007
135007
135006
135006
135006
135006
135006
135006
135006
135006
135006
135005
135005
135005
135005
135005
135005
135005
135005
135005
135005
135005
135005
135005
135005
135005
135005
135005
135005
135005
135006
135006
135006
135006
135006
135006
135006
135006
135006
135006
135006
135006
1.79872e+07
3.10237e+06
1.05858e+06
508714
300473
205948
158561
133368
119439
111499
106853
104069
102362
101294
100612
100168
99873.1
99674.4
99537.7
99441.9
99373.5
99323.5
99286.1
99257.5
99235.2
99217.5
99203
99191.1
99181.3
99173
99166
99160.1
99155.2
99151
99147.5
99144.6
99142.1
99140
99138.3
99136.8
99135.5
99134.4
99133.4
99132.5
99131.7
99131
99130.3
99129.6
99129
99128.4
99127.8
99127.2
99126.6
99126.1
99125.6
99125.1
99124.6
99124.2
99123.9
99123.6
99123.3
99123
99122.8
99122.6
99122.4
99122.3
99122.2
99122.1
99122
99121.9
99121.9
99121.8
99121.8
99121.8
99121.7
99121.7
99121.7
99121.7
99121.7
99121.7
99121.7
99121.7
99121.8
99121.8
99121.8
99121.8
99121.9
99121.9
99121.9
99122
99122
99122.1
99122.1
99122.2
99122.2
99122.2
99122.3
99122.3
99122.3
99122.4
1.79872e+07
3.10229e+06
1.05788e+06
506200
294967