/*--------------------------------*- C++ -*----------------------------------*\
| =========                 |                                                 |
| \\      /  F ield         | foam-extend: Open Source CFD                    |
|  \\    /   O peration     | Version:     4.0                                |
|   \\  /    A nd           | Web:         http://www.foam-extend.org         |
|    \\/     M anipulation  |                                                 |
\*---------------------------------------------------------------------------*/
FoamFile
{
    version     2.0;
    format      ascii;
    class       surfaceScalarField;
    location    "0.0014";
    object      phi;
}
// * * * * * * * * * * * * * * * * * * * * * * * * * * * * * * * * * * * * * //

dimensions      [0 3 -1 0 0 0 0];

internalField   nonuniform List<scalar> 
57362
(
9.36351e-11
5.54369e-15
9.36183e-11
1.67903e-14
9.359e-11
2.82296e-14
9.35499e-11
4.0121e-14
9.34973e-11
5.26698e-14
9.34313e-11
6.5979e-14
9.3351e-11
8.02742e-14
9.32553e-11
9.57172e-14
9.31426e-11
1.12686e-13
9.30112e-11
1.31412e-13
9.28591e-11
1.52075e-13
9.26842e-11
1.74913e-13
9.24837e-11
2.00438e-13
9.22548e-11
2.28906e-13
9.19941e-11
2.60704e-13
9.16978e-11
2.96274e-13
9.13616e-11
3.36153e-13
9.09808e-11
3.80802e-13
9.05501e-11
4.30759e-13
9.00633e-11
4.8668e-13
8.95139e-11
5.49438e-13
8.88944e-11
6.19293e-13
8.8197e-11
6.97631e-13
8.74121e-11
7.84545e-13
8.65307e-11
8.81757e-13
8.55412e-11
9.88956e-13
8.44328e-11
1.10884e-12
8.31923e-11
1.23981e-12
8.1807e-11
1.38601e-12
8.02619e-11
1.54398e-12
7.85431e-11
1.71985e-12
7.66345e-11
1.90712e-12
7.45207e-11
2.11511e-12
7.21862e-11
2.3327e-12
6.96149e-11
2.57292e-12
6.67935e-11
2.81923e-12
6.3707e-11
3.08822e-12
6.03464e-11
3.35832e-12
5.67004e-11
3.64763e-12
5.27665e-11
3.93166e-12
4.8541e-11
4.227e-12
4.40297e-11
4.5092e-12
3.92404e-11
4.79054e-12
3.41891e-11
5.04955e-12
2.88971e-11
5.29283e-12
2.33922e-11
5.50356e-12
1.77087e-11
5.6839e-12
1.18857e-11
5.82224e-12
5.96718e-12
5.91851e-12
5.96679e-12
9.36362e-11
1.10365e-14
9.36197e-11
3.33251e-14
9.35919e-11
5.60284e-14
9.35524e-11
7.96087e-14
9.35006e-11
1.04499e-13
9.34356e-11
1.30944e-13
9.33566e-11
1.59316e-13
9.32622e-11
1.90121e-13
9.3151e-11
2.23816e-13
9.30215e-11
2.60891e-13
9.28717e-11
3.01874e-13
9.26993e-11
3.4733e-13
9.25017e-11
3.9804e-13
9.22761e-11
4.54512e-13
9.20191e-11
5.17681e-13
9.17269e-11
5.88436e-13
9.13954e-11
6.67651e-13
9.10198e-11
7.56357e-13
9.05949e-11
8.55785e-13
9.01145e-11
9.66978e-13
8.95723e-11
1.09173e-12
8.89607e-11
1.23071e-12
8.8272e-11
1.38658e-12
8.74967e-11
1.55955e-12
8.66256e-11
1.75321e-12
8.56474e-11
1.9667e-12
8.45512e-11
2.20565e-12
8.33236e-11
2.46674e-12
8.19522e-11
2.75849e-12
8.04216e-11
3.07355e-12
7.87178e-11
3.42518e-12
7.68244e-11
3.79918e-12
7.47259e-11
4.2157e-12
7.24062e-11
4.65071e-12
6.98491e-11
5.13276e-12
6.70405e-11
5.6259e-12
6.39648e-11
6.16718e-12
6.06126e-11
6.70864e-12
5.69714e-11
7.29237e-12
5.30386e-11
7.86294e-12
4.88092e-11
8.45993e-12
4.4289e-11
9.02835e-12
3.9485e-11
9.59791e-12
3.44132e-11
1.0121e-11
2.90949e-11
1.0614e-11
2.35582e-11
1.10406e-11
1.7838e-11
1.14064e-11
1.19742e-11
1.16869e-11
6.0122e-12
1.18824e-11
1.19804e-11
9.36674e-11
1.63622e-14
9.36513e-11
4.93296e-14
9.36243e-11
8.30703e-14
9.35859e-11
1.1802e-13
9.35356e-11
1.54801e-13
9.34726e-11
1.93963e-13
9.33958e-11
2.36063e-13
9.33042e-11
2.81727e-13
9.31963e-11
3.317e-13
9.30706e-11
3.86599e-13
9.29251e-11
4.47349e-13
9.27576e-11
5.14795e-13
9.25658e-11
5.89899e-13
9.23466e-11
6.73714e-13
9.20968e-11
7.67453e-13
9.18127e-11
8.72439e-13
9.14904e-11
9.90021e-13
9.1125e-11
1.12168e-12
9.07115e-11
1.26936e-12
9.02437e-11
1.43462e-12
8.97156e-11
1.6199e-12
8.91195e-11
1.82658e-12
8.84478e-11
2.05839e-12
8.76913e-11
2.31573e-12
8.68406e-11
2.6042e-12
8.58843e-11
2.92229e-12
8.4812e-11
3.27849e-12
8.36097e-11
3.66802e-12
8.2265e-11
4.10379e-12
8.07624e-11
4.57469e-12
7.90876e-11
5.10085e-12
7.72238e-11
5.66107e-12
7.51548e-11
6.28566e-12
7.28641e-11
6.93886e-12
7.03342e-11
7.66367e-12
6.75505e-11
8.40651e-12
6.44959e-11
9.22257e-12
6.11601e-11
1.00411e-11
5.75289e-11
1.0924e-11
5.35983e-11
1.17898e-11
4.93621e-11
1.26961e-11
4.48244e-11
1.35623e-11
3.99914e-11
1.44303e-11
3.48783e-11
1.52304e-11
2.95065e-11
1.59848e-11
2.39043e-11
1.66396e-11
1.81081e-11
1.72011e-11
1.21595e-11
1.76328e-11
6.10645e-12
1.79335e-11
1.80845e-11
9.36992e-11
2.14568e-14
9.36839e-11
6.46324e-14
9.36581e-11
1.08842e-13
9.36215e-11
1.54673e-13
9.35734e-11
2.02846e-13
9.35132e-11
2.54143e-13
9.344e-11
3.09322e-13
9.33525e-11
3.6924e-13
9.32495e-11
4.34691e-13
9.31293e-11
5.06728e-13
9.29903e-11
5.86399e-13
9.28302e-11
6.74824e-13
9.26467e-11
7.73396e-13
9.2437e-11
8.83438e-13
9.2198e-11
1.00649e-12
9.19261e-11
1.14425e-12
9.16175e-11
1.29871e-12
9.12674e-11
1.4717e-12
9.08709e-11
1.66591e-12
9.04223e-11
1.88318e-12
8.99154e-11
2.12695e-12
8.93427e-11
2.39909e-12
8.86969e-11
2.70449e-12
8.79686e-11
3.04373e-12
8.7149e-11
3.42436e-12
8.62263e-11
3.84443e-12
8.51903e-11
4.31546e-12
8.40268e-11
4.83074e-12
8.27237e-11
5.40845e-12
8.12644e-11
6.03276e-12
7.96351e-11
6.73253e-12
7.78174e-11
7.47711e-12
7.57953e-11
8.31122e-12
7.35502e-11
9.18183e-12
7.10639e-11
1.01546e-11
6.83203e-11
1.11477e-11
6.52995e-11
1.22491e-11
6.19907e-11
1.33477e-11
5.8375e-11
1.45461e-11
5.44494e-11
1.5714e-11
5.02019e-11
1.69501e-11
4.56376e-11
1.81262e-11
4.07598e-11
1.93144e-11
3.55834e-11
2.04077e-11
3.01299e-11
2.1444e-11
2.44279e-11
2.23435e-11
1.85166e-11
2.31174e-11
1.24394e-11
2.37128e-11
6.24888e-12
2.41282e-11
2.43369e-11
9.37313e-11
2.62545e-14
9.37169e-11
7.89997e-14
9.36928e-11
1.32941e-13
9.36585e-11
1.88991e-13
9.36134e-11
2.47916e-13
9.35569e-11
3.10619e-13
9.34882e-11
3.78064e-13
9.34061e-11
4.51299e-13
9.33095e-11
5.31314e-13
9.31967e-11
6.19498e-13
9.30662e-11
7.16944e-13
9.29158e-11
8.25152e-13
9.27434e-11
9.458e-13
9.25463e-11
1.08054e-12
9.23215e-11
1.23129e-12
9.20657e-11
1.40003e-12
9.17751e-11
1.58933e-12
9.14452e-11
1.80153e-12
9.10713e-11
2.03982e-12
9.06478e-11
2.30649e-12
9.01688e-11
2.60609e-12
8.96269e-11
2.94061e-12
8.90152e-11
3.31641e-12
8.83242e-11
3.73424e-12
8.75455e-11
4.20339e-12
8.66672e-11
4.72184e-12
8.56792e-11
5.304e-12
8.4567e-11
5.94149e-12
8.33187e-11
6.65752e-12
8.19172e-11
7.43226e-12
8.03478e-11
8.30278e-12
7.85918e-11
9.23026e-12
7.66318e-11
1.02723e-11
7.44484e-11
1.13615e-11
7.2021e-11
1.25827e-11
6.93324e-11
1.38318e-11
6.63596e-11
1.52222e-11
6.30895e-11
1.66124e-11
5.95006e-11
1.81343e-11
5.55859e-11
1.96229e-11
5.13313e-11
2.12029e-11
4.67376e-11
2.27138e-11
4.18061e-11
2.42432e-11
3.65494e-11
2.56582e-11
3.09885e-11
2.70015e-11
2.51529e-11
2.81733e-11
1.9084e-11
2.91825e-11
1.28296e-11
2.99619e-11
6.44764e-12
3.05059e-11
3.07799e-11
9.37918e-11
3.05865e-14
9.37786e-11
9.21669e-14
9.37565e-11
1.55128e-13
9.37249e-11
2.20529e-13
9.36835e-11
2.89313e-13
9.36316e-11
3.62497e-13
9.35684e-11
4.41257e-13
9.3493e-11
5.26713e-13
9.34041e-11
6.20253e-13
9.33004e-11
7.23204e-13
9.31802e-11
8.37094e-13
9.30417e-11
9.63633e-13
9.28829e-11
1.10462e-12
9.27012e-11
1.26219e-12
9.2494e-11
1.43859e-12
9.22578e-11
1.63616e-12
9.19893e-11
1.85786e-12
9.16842e-11
2.10655e-12
9.13383e-11
2.38588e-12
9.09458e-11
2.69884e-12
9.05014e-11
3.05074e-12
8.99979e-11
3.44389e-12
8.94287e-11
3.88606e-12
8.87844e-11
4.37813e-12
8.80571e-11
4.93149e-12
8.72346e-11
5.54359e-12
8.63078e-11
6.23228e-12
8.52609e-11
6.98721e-12
8.40834e-11
7.83753e-12
8.27557e-11
8.75809e-12
8.12652e-11
9.79712e-12
7.95894e-11
1.09035e-11
7.77123e-11
1.21549e-11
7.56106e-11
1.34599e-11
7.32628e-11
1.49381e-11
7.06489e-11
1.64419e-11
6.77406e-11
1.81401e-11
6.45256e-11
1.98237e-11
6.09708e-11
2.17002e-11
5.70737e-11
2.35176e-11
5.28069e-11
2.54812e-11
4.81738e-11
2.73468e-11
4.31701e-11
2.92579e-11
3.78064e-11
3.10242e-11
3.21052e-11
3.27126e-11
2.60941e-11
3.41885e-11
1.98207e-11
3.54645e-11
1.33354e-11
3.64525e-11
6.70549e-12
3.71431e-11
3.74917e-11
9.38514e-11
3.44732e-14
9.38396e-11
1.03975e-13
9.38197e-11
1.7505e-13
9.37914e-11
2.48816e-13
9.37543e-11
3.26423e-13
9.37077e-11
4.09016e-13
9.36511e-11
4.97871e-13
9.35834e-11
5.94443e-13
9.35036e-11
7.00083e-13
9.34104e-11
8.16321e-13
9.33025e-11
9.45045e-13
9.3178e-11
1.0881e-12
9.30351e-11
1.24753e-12
9.28715e-11
1.42573e-12
9.26848e-11
1.62534e-12
9.24718e-11
1.84907e-12
9.22294e-11
2.10031e-12
9.19536e-11
2.3822e-12
9.16405e-11
2.69912e-12
9.12846e-11
3.05451e-12
9.08811e-11
3.45438e-12
9.04228e-11
3.90172e-12
8.99038e-11
4.40533e-12
8.93148e-11
4.96646e-12
8.86483e-11
5.59844e-12
8.78921e-11
6.29852e-12
8.70375e-11
7.08767e-12
8.60686e-11
7.9542e-12
8.49745e-11
8.93264e-12
8.37357e-11
9.99401e-12
8.23382e-11
1.11958e-11
8.07597e-11
1.2478e-11
7.89812e-11
1.39346e-11
7.69794e-11
1.54565e-11
7.47287e-11
1.71895e-11
7.22077e-11
1.89563e-11
6.93833e-11
2.09641e-11
6.62396e-11
2.29597e-11
6.27396e-11
2.51983e-11
5.88728e-11
2.73755e-11
5.46102e-11
2.974e-11
4.99445e-11
3.20027e-11
4.48681e-11
3.43287e-11
3.93862e-11
3.64959e-11
3.3519e-11
3.85731e-11
2.72955e-11
4.04023e-11
2.07656e-11
4.1987e-11
1.39879e-11
4.32214e-11
7.03863e-12
4.40848e-11
4.45222e-11
9.3909e-11
3.78726e-14
9.38987e-11
1.1425e-13
9.38814e-11
1.92348e-13
9.38568e-11
2.73421e-13
9.38245e-11
3.58709e-13
9.3784e-11
4.49514e-13
9.37347e-11
5.47196e-13
9.36757e-11
6.53372e-13
9.36063e-11
7.69544e-13
9.35251e-11
8.9749e-13
9.3431e-11
1.03915e-12
9.33224e-11
1.19666e-12
9.31977e-11
1.3723e-12
9.30548e-11
1.56864e-12
9.28914e-11
1.78877e-12
9.27048e-11
2.03558e-12
9.24922e-11
2.31297e-12
9.225e-11
2.62434e-12
9.19745e-11
2.97478e-12
9.16608e-11
3.36807e-12
9.13044e-11
3.81104e-12
9.08986e-11
4.30724e-12
9.04381e-11
4.86644e-12
8.99135e-11
5.4905e-12
8.93187e-11
6.19444e-12
8.86407e-11
6.97551e-12
8.78725e-11
7.858e-12
8.69963e-11
8.8286e-12
8.60042e-11
9.92834e-12
8.48727e-11
1.11228e-11
8.35921e-11
1.24822e-11
8.21331e-11
1.39328e-11
8.0482e-11
1.55944e-11
7.86065e-11
1.73262e-11
7.64838e-11
1.93245e-11
7.40857e-11
2.13474e-11
7.13721e-11
2.36936e-11
6.83302e-11
2.59948e-11
6.48983e-11
2.86485e-11
6.10829e-11
3.11864e-11
5.68201e-11
3.40216e-11
5.21136e-11
3.67093e-11
4.69461e-11
3.95139e-11
4.13155e-11
4.2131e-11
3.52467e-11
4.46579e-11
2.87604e-11
4.68961e-11
2.1919e-11
4.88422e-11
1.47828e-11
5.03668e-11
7.44492e-12
5.14346e-11
5.19776e-11
9.39923e-11
4.06776e-14
9.39837e-11
1.22775e-13
9.39693e-11
2.06747e-13
9.39488e-11
2.9394e-13
9.39219e-11
3.85645e-13
9.38881e-11
4.83307e-13
9.38468e-11
5.88463e-13
9.37975e-11
7.02664e-13
9.37394e-11
8.27665e-13
9.36715e-11
9.65407e-13
9.35926e-11
1.11797e-12
9.35016e-11
1.28766e-12
9.33969e-11
1.477e-12
9.32768e-11
1.68875e-12
9.31393e-11
1.92631e-12
9.29819e-11
2.19282e-12
9.28024e-11
2.49254e-12
9.25973e-11
2.82927e-12
9.23636e-11
3.20859e-12
9.20967e-11
3.63473e-12
9.17928e-11
4.11516e-12
9.14454e-11
4.65407e-12
9.105e-11
5.26219e-12
9.05976e-11
5.94202e-12
9.00825e-11
6.71013e-12
8.94923e-11
7.56414e-12
8.88203e-11
8.53105e-12
8.8049e-11
9.59722e-12
8.71703e-11
1.08086e-11
8.61613e-11
1.21279e-11
8.50102e-11
1.3635e-11
8.36892e-11
1.52482e-11
8.21798e-11
1.71055e-11
8.04518e-11
1.90469e-11
7.84745e-11
2.13029e-11
7.62207e-11
2.35919e-11
7.36425e-11
2.62713e-11
7.07215e-11
2.89046e-11
6.73939e-11
3.19728e-11
6.36485e-11
3.49188e-11
5.94271e-11
3.82361e-11
5.47071e-11
4.14143e-11
4.94649e-11
4.47462e-11
4.36878e-11
4.7892e-11
3.73925e-11
5.09413e-11
3.06024e-11
5.36707e-11
2.33793e-11
5.60529e-11
1.57975e-11
5.79345e-11
7.96484e-12
5.92549e-11
5.99295e-11
9.40715e-11
4.29192e-14
9.40648e-11
1.29503e-13
9.40534e-11
2.18078e-13
9.40373e-11
3.10082e-13
9.40161e-11
4.06833e-13
9.39895e-11
5.09865e-13
9.39571e-11
6.20897e-13
9.39183e-11
7.41498e-13
9.38724e-11
8.73511e-13
9.38188e-11
1.01903e-12
9.37565e-11
1.18027e-12
9.36845e-11
1.35963e-12
9.36016e-11
1.55998e-12
9.35061e-11
1.78417e-12
9.33967e-11
2.03574e-12
9.32713e-11
2.31822e-12
9.31278e-11
2.63607e-12
9.29634e-11
2.99355e-12
9.27757e-11
3.3966e-12
9.25602e-11
3.84992e-12
9.23143e-11
4.36153e-12
9.20317e-11
4.93627e-12
9.1709e-11
5.58573e-12
9.13372e-11
6.31307e-12
9.09126e-11
7.13635e-12
9.04215e-11
8.05377e-12
8.98606e-11
9.09485e-12
8.92095e-11
1.02458e-11
8.84654e-11
1.15576e-11
8.75987e-11
1.29904e-11
8.66069e-11
1.46351e-11
8.54495e-11
1.6399e-11
8.41219e-11
1.84462e-11
8.25744e-11
2.05846e-11
8.07907e-11
2.31056e-11
7.87252e-11
2.56449e-11
7.6327e-11
2.86947e-11
7.35838e-11
3.16347e-11
7.038e-11
3.52061e-11
6.67606e-11
3.85291e-11
6.25702e-11
4.24562e-11
5.78203e-11
4.61645e-11
5.24841e-11
5.01097e-11
4.65188e-11
5.38659e-11
3.99575e-11
5.75269e-11
3.27963e-11
6.08452e-11
2.5121e-11
6.37494e-11
1.70046e-11
6.6066e-11
8.5843e-12
6.76935e-11
6.85301e-11
9.41456e-11
4.45059e-14
9.41408e-11
1.34312e-13
9.41327e-11
2.26197e-13
9.41212e-11
3.21561e-13
9.41061e-11
4.21947e-13
9.40871e-11
5.28858e-13
9.4064e-11
6.4403e-13
9.40363e-11
7.69173e-13
9.40035e-11
9.06281e-13
9.3965e-11
1.05749e-12
9.39203e-11
1.22503e-12
9.38684e-11
1.4115e-12
9.38085e-11
1.61993e-12
9.37393e-11
1.85326e-12
9.36599e-11
2.11521e-12
9.35684e-11
2.40961e-12
9.34635e-11
2.7411e-12
9.33425e-11
3.11433e-12
9.32038e-11
3.53548e-12
9.30436e-11
4.00971e-12
9.28598e-11
4.54567e-12
9.26468e-11
5.14862e-12
9.24021e-11
5.8309e-12
9.21174e-11
6.59664e-12
9.17898e-11
7.46483e-12
9.14066e-11
8.43491e-12
9.09649e-11
9.538e-12
9.04457e-11
1.07617e-11
8.98453e-11
1.21601e-11
8.9137e-11
1.36937e-11
8.83142e-11
1.54605e-11
8.73419e-11
1.7364e-11
8.6206e-11
1.9585e-11
8.48654e-11
2.19152e-11
8.32886e-11
2.46847e-11
8.14381e-11
2.74827e-11
7.92474e-11
3.08855e-11
7.67e-11
3.41666e-11
7.36827e-11
3.8219e-11
7.02031e-11
4.19906e-11
6.61461e-11
4.65028e-11
6.1452e-11
5.08356e-11
5.60766e-11
5.54688e-11
4.99641e-11
5.99535e-11
4.31224e-11
6.4349e-11
3.5555e-11
6.83882e-11
2.73351e-11
7.19491e-11
1.85585e-11
7.4821e-11
9.38507e-12
7.68478e-11
7.78959e-11
9.42419e-11
4.542e-14
9.42392e-11
1.3705e-13
9.42345e-11
2.3085e-13
9.42279e-11
3.28213e-13
9.42191e-11
4.30708e-13
9.4208e-11
5.39924e-13
9.41945e-11
6.5753e-13
9.41783e-11
7.85376e-13
9.41591e-11
9.25478e-13
9.41366e-11
1.08007e-12
9.41101e-11
1.2515e-12
9.40793e-11
1.44234e-12
9.40435e-11
1.6557e-12
9.4002e-11
1.89471e-12
9.3954e-11
2.16326e-12
9.38983e-11
2.46527e-12
9.38339e-11
2.80565e-12
9.37588e-11
3.18927e-12
9.36721e-11
3.62249e-12
9.35705e-11
4.11101e-12
9.3453e-11
4.66369e-12
9.33146e-11
5.28653e-12
9.31543e-11
5.99231e-12
9.29636e-11
6.78628e-12
9.27426e-11
7.68782e-12
9.24773e-11
8.69828e-12
9.21697e-11
9.84936e-12
9.17964e-11
1.11315e-11
9.13633e-11
1.25997e-11
9.08326e-11
1.42184e-11
9.0216e-11
1.60882e-11
8.94551e-11
1.8115e-11
8.85673e-11
2.04908e-11
8.74712e-11
2.2996e-11
8.61786e-11
2.60046e-11
8.46013e-11
2.90387e-11
8.27e-11
3.2825e-11
8.04507e-11
3.63908e-11
7.76451e-11
4.10713e-11
7.44708e-11
4.51455e-11
7.05035e-11
5.05145e-11
6.57912e-11
5.55505e-11
6.03626e-11
6.09368e-11
5.4041e-11
6.62917e-11
4.68809e-11
7.15443e-11
3.88118e-11
7.64808e-11
2.99497e-11
8.08423e-11
2.0386e-11
8.4409e-11
1.03278e-11
8.69324e-11
8.82477e-11
9.43304e-11
4.57252e-14
9.43297e-11
1.37791e-13
9.43285e-11
2.32008e-13
9.43268e-11
3.29899e-13
9.43246e-11
4.32937e-13
9.43217e-11
5.42795e-13
9.43181e-11
6.61111e-13
9.43138e-11
7.8976e-13
9.43085e-11
9.30781e-13
9.43021e-11
1.08639e-12
9.42945e-11
1.25911e-12
9.42854e-11
1.45145e-12
9.42745e-11
1.66659e-12
9.42614e-11
1.90778e-12
9.42458e-11
2.17888e-12
9.42269e-11
2.48409e-12
9.42044e-11
2.82828e-12
9.41769e-11
3.21655e-12
9.4144e-11
3.65554e-12
9.41034e-11
4.15124e-12
9.40548e-11
4.71265e-12
9.3994e-11
5.34654e-12
9.39213e-11
6.06571e-12
9.38294e-11
6.87674e-12
9.37193e-11
7.7991e-12
9.35788e-11
8.83634e-12
9.341e-11
1.002e-11
9.31932e-11
1.13443e-11
9.29321e-11
1.28637e-11
9.25955e-11
1.45486e-11
9.21879e-11
1.64999e-11
9.16635e-11
1.86301e-11
9.10227e-11
2.11366e-11
9.02053e-11
2.38003e-11
8.91928e-11
2.70223e-11
8.79242e-11
3.02902e-11
8.63222e-11
3.44302e-11
8.43739e-11
3.83184e-11
8.18694e-11
4.35724e-11
7.89231e-11
4.80687e-11
7.52966e-11
5.41277e-11
7.08264e-11
5.99852e-11
6.54609e-11
6.62766e-11
5.90488e-11
7.26654e-11
5.15777e-11
7.89836e-11
4.29981e-11
8.50227e-11
3.3374e-11
9.04347e-11
2.28241e-11
9.49269e-11
1.15955e-11
9.81335e-11
9.98165e-11
9.44098e-11
4.52704e-14
9.44111e-11
1.36415e-13
9.44134e-11
2.29697e-13
9.44167e-11
3.26595e-13
9.44211e-11
4.28633e-13
9.44264e-11
5.37458e-13
9.44328e-11
6.54661e-13
9.44404e-11
7.82187e-13
9.44492e-11
9.22019e-13
9.44592e-11
1.07634e-12
9.44707e-11
1.24765e-12
9.44836e-11
1.43859e-12
9.44979e-11
1.65228e-12
9.45137e-11
1.89197e-12
9.45311e-11
2.16154e-12
9.45498e-11
2.46526e-12
9.45702e-11
2.80808e-12
9.45914e-11
3.19519e-12
9.46139e-11
3.63331e-12
9.46361e-11
4.12872e-12
9.46591e-11
4.69036e-12
9.46792e-11
5.3258e-12
9.46986e-11
6.04757e-12
9.47103e-11
6.86375e-12
9.47187e-11
7.79306e-12
9.47104e-11
8.84224e-12
9.46943e-11
1.00405e-11
9.46451e-11
1.1389e-11
9.45804e-11
1.29365e-11
9.44541e-11
1.4667e-11
9.4299e-11
1.66688e-11
9.4034e-11
1.88816e-11
9.37166e-11
2.1477e-11
9.3211e-11
2.42839e-11
9.26067e-11
2.76634e-11
9.17028e-11
3.11602e-11
9.05798e-11
3.56087e-11
8.90763e-11
3.97753e-11
8.69055e-11
4.5818e-11
8.47801e-11
5.01495e-11
8.13208e-11
5.76489e-11
7.67071e-11
6.46117e-11
7.1446e-11
7.15891e-11
6.48945e-11
7.92504e-11
5.71084e-11
8.68185e-11
4.78842e-11
9.42884e-11
3.73509e-11
1.01013e-10
2.56395e-11
1.06676e-10
1.30586e-11
1.1075e-10
1.12908e-10
9.45075e-11
4.40544e-14
9.4511e-11
1.32939e-13
9.45168e-11
2.23907e-13
9.4525e-11
3.18365e-13
9.45358e-11
4.17857e-13
9.45493e-11
5.23941e-13
9.45657e-11
6.3829e-13
9.45851e-11
7.62737e-13
9.46079e-11
8.99239e-13
9.46344e-11
1.04991e-12
9.46648e-11
1.21721e-12
9.46995e-11
1.40383e-12
9.47391e-11
1.61275e-12
9.47838e-11
1.84727e-12
9.48341e-11
2.11122e-12
9.48905e-11
2.40876e-12
9.49538e-11
2.7449e-12
9.50239e-11
3.12489e-12
9.51021e-11
3.5553e-12
9.51876e-11
4.04278e-12
9.52825e-11
4.59593e-12
9.53845e-11
5.22296e-12
9.54967e-11
5.93614e-12
9.56141e-11
6.74479e-12
9.5742e-11
7.66658e-12
9.587e-11
8.71142e-12
9.6007e-11
9.90595e-12
9.61337e-11
1.12577e-11
9.62639e-11
1.28101e-11
9.63638e-11
1.45598e-11
9.64542e-11
1.6584e-11
9.64779e-11
1.88466e-11
9.64642e-11
2.14986e-11
9.63215e-11
2.441e-11
9.60802e-11
2.79151e-11
9.56134e-11
3.16037e-11
9.48962e-11
3.63373e-11
9.38533e-11
4.07888e-11
9.20692e-11
4.76048e-11
9.01511e-11
5.20464e-11
8.75447e-11
3.25596e-11
2.76856e-11
8.37085e-11
3.16859e-11
3.67037e-11
7.87108e-11
3.57421e-11
4.08035e-11
7.22196e-11
4.03527e-11
4.53293e-11
6.41714e-11
4.50261e-11
4.97863e-11
5.4396e-11
4.98066e-11
5.41939e-11
4.28467e-11
5.43697e-11
5.81367e-11
2.96378e-11
5.84645e-11
6.13693e-11
1.51651e-11
6.16714e-11
6.35093e-11
6.37021e-11
6.43319e-11
9.45905e-11
4.22425e-14
9.45959e-11
1.27502e-13
9.46051e-11
2.14699e-13
9.46182e-11
3.05268e-13
9.46354e-11
4.00669e-13
9.46569e-11
5.02409e-13
9.4683e-11
6.12196e-13
9.47142e-11
7.31605e-13
9.47507e-11
8.62712e-13
9.47932e-11
1.0074e-12
9.48423e-11
1.16812e-12
9.48986e-11
1.34754e-12
9.49629e-11
1.54843e-12
9.5036e-11
1.77414e-12
9.5119e-11
2.02827e-12
9.52127e-11
2.31507e-12
9.53185e-11
2.63922e-12
9.54372e-11
3.00606e-12
9.55709e-11
3.42191e-12
9.57197e-11
3.89359e-12
9.5887e-11
4.42939e-12
9.60713e-11
5.03794e-12
9.62781e-11
5.73074e-12
9.65028e-11
6.51866e-12
9.67545e-11
7.41743e-12
9.70224e-11
8.44081e-12
9.73223e-11
9.61089e-12
9.76309e-11
1.0944e-11
9.79768e-11
1.24729e-11
9.83122e-11
1.42152e-11
9.86905e-11
1.6221e-11
9.9016e-11
1.85051e-11
9.93927e-11
2.1148e-11
9.96258e-11
2.41496e-11
9.99366e-11
2.76479e-11
9.98981e-11
3.15955e-11
1.00061e-10
3.62481e-11
9.93385e-11
4.14288e-11
9.94301e-11
4.76463e-11
4.93708e-11
5.44144e-11
4.75298e-11
-2.83469e-11
2.92347e-11
4.88441e-11
-4.63679e-11
4.55117e-11
3.24516e-11
-4.48731e-11
4.36962e-11
3.68705e-11
-4.25842e-11
4.11038e-11
4.18156e-11
-3.95682e-11
3.76114e-11
4.69854e-11
-3.55082e-11
3.30321e-11
5.22956e-11
-3.03174e-11
2.73069e-11
5.73931e-11
-2.40164e-11
2.04954e-11
6.19957e-11
-1.67125e-11
1.27421e-11
6.5652e-11
-8.58497e-12
4.32634e-12
6.79755e-11
9.46717e-11
3.97914e-14
9.46792e-11
1.20038e-13
9.46918e-11
2.02153e-13
9.47095e-11
2.87493e-13
9.47328e-11
3.77397e-13
9.4762e-11
4.73249e-13
9.47975e-11
5.76687e-13
9.48398e-11
6.89275e-13
9.48896e-11
8.12905e-13
9.49476e-11
9.49388e-13
9.50147e-11
1.10107e-12
9.50917e-11
1.27046e-12
9.518e-11
1.46017e-12
9.52807e-11
1.67345e-12
9.53952e-11
1.91378e-12
9.5525e-11
2.18522e-12
9.56721e-11
2.49218e-12
9.5838e-11
2.83996e-12
9.60256e-11
3.23451e-12
9.62362e-11
3.68256e-12
9.6474e-11
4.19207e-12
9.67391e-11
4.77194e-12
9.70381e-11
5.43265e-12
9.73689e-11
6.18628e-12
9.77413e-11
7.0466e-12
9.8149e-11
8.03021e-12
9.86073e-11
9.15537e-12
9.9101e-11
1.04453e-11
9.96548e-11
1.19237e-11
1.00237e-10
1.36247e-11
1.00888e-10
1.55775e-11
1.01545e-10
1.78353e-11
1.02277e-10
2.04275e-11
1.02958e-10
2.34479e-11
1.03725e-10
2.6899e-11
1.04302e-10
3.09863e-11
1.05027e-10
3.55539e-11
1.0519e-10
4.12115e-11
1.05891e-10
4.7007e-11
5.38926e-11
5.53498e-11
5.09575e-11
-2.95189e-11
3.00776e-11
5.36049e-11
-5.04191e-11
4.97779e-11
-3.35343e-11
3.40331e-11
-4.93193e-11
4.83883e-11
-3.83071e-11
3.91438e-11
-4.74819e-11
4.61552e-11
-4.36087e-11
4.48793e-11
-4.47339e-11
4.28435e-11
-4.92488e-11
5.11132e-11
-4.0788e-11
3.81596e-11
-5.5018e-11
5.76419e-11
-3.51922e-11
3.19083e-11
-6.07459e-11
6.4027e-11
-2.82283e-11
2.42278e-11
-6.59546e-11
6.99514e-11
-1.98565e-11
1.52006e-11
-7.01036e-11
7.47593e-11
-1.02779e-11
5.18777e-12
-7.27001e-11
7.78001e-11
9.47503e-11
3.66964e-14
9.47596e-11
1.10731e-13
9.47752e-11
1.8656e-13
9.47974e-11
2.65302e-13
9.48264e-11
3.48313e-13
9.48628e-11
4.3688e-13
9.49072e-11
5.32342e-13
9.49601e-11
6.36337e-13
9.50225e-11
7.50517e-13
9.50952e-11
8.76682e-13
9.51793e-11
1.01696e-12
9.52761e-11
1.17366e-12
9.53872e-11
1.34918e-12
9.55139e-11
1.54666e-12
9.56585e-11
1.76932e-12
9.58227e-11
2.02088e-12
9.60095e-11
2.30561e-12
9.62207e-11
2.62858e-12
9.64603e-11
2.99521e-12
9.67304e-11
3.4121e-12
9.70366e-11
3.88656e-12
9.73802e-11
4.42764e-12
9.77696e-11
5.04462e-12
9.82041e-11
5.75033e-12
9.86969e-11
6.55641e-12
9.92424e-11
7.48191e-12
9.98621e-11
8.54054e-12
1.0054e-10
9.76219e-12
1.01312e-10
1.11604e-11
1.02141e-10
1.27859e-11
1.0309e-10
1.46442e-11
1.04081e-10
1.68282e-11
1.0522e-10
1.93134e-11
1.06356e-10
2.22845e-11
1.07672e-10
2.56236e-11
1.08879e-10
2.97345e-11
1.10282e-10
3.42154e-11
1.11376e-10
4.0044e-11
1.12546e-10
4.59367e-11
5.83527e-11
5.45445e-11
5.48864e-11
-3.00423e-11
3.01402e-11
5.84613e-11
-5.49675e-11
5.46594e-11
-3.47774e-11
3.4984e-11
-5.44797e-11
5.38863e-11
-4.02142e-11
4.0753e-11
-5.32602e-11
5.22409e-11
-4.63963e-11
4.74005e-11
-5.10609e-11
4.93954e-11
-5.32091e-11
5.48957e-11
-4.76697e-11
4.47909e-11
-6.01322e-11
6.30695e-11
-4.13688e-11
3.78675e-11
-6.75009e-11
7.10402e-11
-3.3771e-11
2.92361e-11
-7.437e-11
7.89259e-11
-2.41402e-11
1.85931e-11
-7.99658e-11
8.55252e-11
-1.26321e-11
6.39316e-12
-8.34959e-11
8.97477e-11
9.48219e-11
3.30882e-14
9.48328e-11
9.98171e-14
9.48512e-11
1.68118e-13
9.48775e-11
2.39064e-13
9.49119e-11
3.13836e-13
9.49551e-11
3.93709e-13
9.50077e-11
4.79799e-13
9.50704e-11
5.73553e-13
9.51444e-11
6.76545e-13
9.52307e-11
7.90382e-13
9.53307e-11
9.16998e-13
9.54459e-11
1.05847e-12
9.55781e-11
1.21703e-12
9.57291e-11
1.39555e-12
9.59017e-11
1.59682e-12
9.60981e-11
1.8244e-12
9.63216e-11
2.08222e-12
9.65751e-11
2.37487e-12
9.68633e-11
2.70733e-12
9.71891e-11
3.08579e-12
9.75594e-11
3.51684e-12
9.79767e-11
4.00938e-12
9.84509e-11
4.57138e-12
9.89838e-11
5.21581e-12
9.95896e-11
5.95234e-12
1.00267e-10
6.80137e-12
1.01038e-10
7.7725e-12
1.01896e-10
8.8998e-12
1.02872e-10
1.0189e-11
1.03949e-10
1.17011e-11
1.05176e-10
1.3425e-11
1.06512e-10
1.54791e-11
1.08036e-10
1.78021e-11
1.09662e-10
2.06389e-11
1.11516e-10
2.37902e-11
1.13424e-10
2.77941e-11
1.15591e-10
3.20828e-11
1.1769e-10
3.78942e-11
1.19975e-10
4.3711e-11
6.28564e-11
5.24191e-11
5.9161e-11
-2.97787e-11
2.94047e-11
6.33849e-11
-6.00005e-11
6.01122e-11
-3.52793e-11
3.50951e-11
-6.03377e-11
6.02096e-11
-4.13675e-11
4.14676e-11
-5.99782e-11
5.94741e-11
-4.85414e-11
4.90559e-11
-5.85444e-11
5.75844e-11
-5.70271e-11
5.80386e-11
-2.83453e-11
-3.40849e-11
2.73524e-11
3.47103e-11
-2.50578e-11
-3.9657e-11
2.3918e-11
4.05158e-11
-2.04454e-11
-4.45396e-11
1.8945e-11
4.5839e-11
-1.41657e-11
-4.84768e-11
1.22889e-11
5.02274e-11
-6.39977e-12
5.28517e-11
-5.0778e-11
4.27355e-12
9.48854e-11
2.89754e-14
9.48979e-11
8.73262e-14
9.49189e-11
1.47072e-13
9.49488e-11
2.09184e-13
9.49881e-11
2.746e-13
9.50374e-11
3.44407e-13
9.50974e-11
4.19764e-13
9.51691e-11
5.01888e-13
9.52536e-11
5.92067e-13
9.53522e-11
6.91776e-13
9.54665e-11
8.02679e-13
9.55983e-11
9.2665e-13
9.57497e-11
1.06572e-12
9.59229e-11
1.22228e-12
9.61209e-11
1.39887e-12
9.63465e-11
1.59875e-12
9.66037e-11
1.82521e-12
9.68958e-11
2.08251e-12
9.72286e-11
2.37492e-12
9.76058e-11
2.70826e-12
9.80351e-11
3.0882e-12
9.85208e-11
3.52293e-12
9.90742e-11
4.01929e-12
9.96987e-11
4.5899e-12
1.00411e-10
5.24236e-12
1.01213e-10
5.99705e-12
1.02129e-10
6.86047e-12
1.03156e-10
7.86802e-12
1.04334e-10
9.01962e-12
1.05645e-10
1.03807e-11
1.07153e-10
1.19303e-11
1.08821e-10
1.37966e-11
1.10742e-10
1.59032e-11
1.12845e-10
1.85116e-11
1.15262e-10
2.14076e-11
1.17879e-10
2.514e-11
1.2084e-10
2.91707e-11
1.24017e-10
3.46627e-11
1.2744e-10
4.03563e-11
6.74103e-11
4.86714e-11
6.37027e-11
-2.86157e-11
2.7693e-11
6.84522e-11
-6.54472e-11
6.60813e-11
-3.48442e-11
3.4156e-11
-6.68538e-11
6.73156e-11
-4.14518e-11
4.09754e-11
-6.77167e-11
6.78073e-11
-4.94103e-11
4.93359e-11
-6.76016e-11
6.69794e-11
-5.87993e-11
5.94621e-11
-3.42887e-11
-3.65098e-11
3.35012e-11
3.69362e-11
-3.11716e-11
-4.33089e-11
3.00795e-11
4.41769e-11
-2.61923e-11
-5.02064e-11
2.4561e-11
5.17071e-11
-1.8676e-11
-5.62624e-11
1.63753e-11
5.84943e-11
-8.60492e-12
6.28744e-11
-6.00858e-11
5.79245e-12
9.49427e-11
2.4366e-14
9.49566e-11
7.34446e-14
9.49799e-11
1.23743e-13
9.50131e-11
1.7602e-13
9.50566e-11
2.3112e-13
9.51111e-11
2.89854e-13
9.51776e-11
3.53248e-13
9.52571e-11
4.22416e-13
9.53509e-11
4.98331e-13
9.54603e-11
5.82335e-13
9.55872e-11
6.75774e-13
9.57336e-11
7.80251e-13
9.59019e-11
8.97515e-13
9.60946e-11
1.02949e-12
9.6315e-11
1.17851e-12
9.65665e-11
1.34723e-12
9.68534e-11
1.53844e-12
9.71798e-11
1.75591e-12
9.75519e-11
2.00311e-12
9.79744e-11
2.28529e-12
9.84561e-11
2.60702e-12
9.90026e-11
2.97567e-12
9.96261e-11
3.39677e-12
1.00332e-10
3.88197e-12
1.0114e-10
4.43694e-12
1.02053e-10
5.08081e-12
1.03099e-10
5.81755e-12
1.04281e-10
6.68132e-12
1.05638e-10
7.66795e-12
1.07169e-10
8.84216e-12
1.0893e-10
1.01768e-11
1.10914e-10
1.18006e-11
1.13202e-10
1.36283e-11
1.15773e-10
1.59228e-11
1.18736e-10
1.84635e-11
1.22057e-10
2.17916e-11
1.25865e-10
2.53934e-11
1.30122e-10
3.03655e-11
1.349e-10
3.56232e-11
7.18904e-11
4.32665e-11
6.83576e-11
-2.64246e-11
2.49367e-11
7.34704e-11
-7.11452e-11
7.24082e-11
-3.32675e-11
3.19612e-11
-7.38747e-11
7.51088e-11
-4.0216e-11
3.89725e-11
-7.63758e-11
7.73825e-11
-4.88816e-11
4.78895e-11
-7.82266e-11
7.86461e-11
-5.96339e-11
5.92445e-11
-4.12476e-11
-3.80082e-11
4.07379e-11
3.81722e-11
-3.92005e-11
-4.67297e-11
3.82781e-11
4.7464e-11
-3.45897e-11
-5.65598e-11
3.28475e-11
5.8217e-11
-2.58366e-11
-6.61734e-11
2.28848e-11
6.91015e-11
-1.23406e-11
7.68404e-11
-7.28458e-11
8.34978e-12
9.49901e-11
1.93854e-14
9.50051e-11
5.84649e-14
9.50303e-11
9.84916e-14
9.50663e-11
1.40085e-13
9.51134e-11
1.83985e-13
9.51725e-11
2.30822e-13
9.52444e-11
2.81265e-13
9.53305e-11
3.36343e-13
9.54321e-11
3.96795e-13
9.55507e-11
4.63716e-13
9.56882e-11
5.38236e-13
9.5847e-11
6.21484e-13
9.60296e-11
7.14955e-13
9.62388e-11
8.2021e-13
9.64783e-11
9.39148e-13
9.67516e-11
1.07379e-12
9.70638e-11
1.22649e-12
9.74193e-11
1.40021e-12
9.78249e-11
1.5978e-12
9.82863e-11
1.82354e-12
9.88131e-11
2.08094e-12
9.94117e-11
2.37639e-12
1.00096e-10
2.71394e-12
1.00873e-10
3.10347e-12
1.01763e-10
3.54932e-12
1.02773e-10
4.06781e-12
1.03934e-10
4.6613e-12
1.05251e-10
5.35944e-12
1.06769e-10
6.15722e-12
1.08492e-10
7.11099e-12
1.10485e-10
8.19598e-12
1.1275e-10
9.52326e-12
1.15375e-10
1.10205e-11
1.18368e-10
1.29108e-11
1.21841e-10
1.50168e-11
1.2582e-10
1.77847e-11
1.30423e-10
2.0826e-11
1.35742e-10
2.50099e-11
1.41835e-10
2.95735e-11
7.6058e-11
3.61136e-11
7.2883e-11
-2.31238e-11
2.10472e-11
7.82068e-11
-7.68236e-11
7.88121e-11
-3.03541e-11
2.833e-11
-8.10915e-11
8.32787e-11
-3.73113e-11
3.51165e-11
-8.56343e-11
8.78938e-11
-4.6327e-11
4.40783e-11
-9.01693e-11
9.2222e-11
-5.81032e-11
5.60719e-11
-4.95652e-11
-3.80324e-11
4.95885e-11
3.7684e-11
-4.97993e-11
-4.9032e-11
4.94229e-11
4.92405e-11
-4.72912e-11
-6.29549e-11
4.60516e-11
6.41314e-11
-3.77913e-11
-7.88763e-11
3.4119e-11
8.25863e-11
-1.94141e-11
9.77573e-11
-9.15882e-11
1.32926e-11
9.50269e-11
1.4104e-14
9.50428e-11
4.25524e-14
9.50696e-11
7.17364e-14
9.51077e-11
1.02003e-13
9.51577e-11
1.33991e-13
9.52204e-11
1.6813e-13
9.52967e-11
2.04899e-13
9.5388e-11
2.4505e-13
9.54958e-11
2.89033e-13
9.56217e-11
3.37814e-13
9.57678e-11
3.92187e-13
9.59364e-11
4.52862e-13
9.61304e-11
5.21006e-13
9.63528e-11
5.97783e-13
9.66075e-11
6.84526e-13
9.68983e-11
7.82845e-13
9.72307e-11
8.94296e-13
9.76096e-11
1.02114e-12
9.80421e-11
1.16551e-12
9.85347e-11
1.33053e-12
9.90974e-11
1.51878e-12
9.9738e-11
1.73502e-12
1.00471e-10
1.98219e-12
1.01305e-10
2.26781e-12
1.02261e-10
2.59472e-12
1.03351e-10
2.97578e-12
1.04603e-10
3.41187e-12
1.06032e-10
3.92652e-12
1.0768e-10
4.51417e-12
1.09564e-10
5.22017e-12
1.11745e-10
6.02235e-12
1.14247e-10
7.01023e-12
1.17157e-10
8.12292e-12
1.20512e-10
9.53978e-12
1.24428e-10
1.11178e-11
1.28981e-10
1.32107e-11
1.3431e-10
1.55202e-11
1.40575e-10
1.87172e-11
1.47923e-10
2.22563e-11
7.96479e-11
2.73251e-11
7.70273e-11
-1.86913e-11
1.60742e-11
8.23197e-11
-8.21245e-11
8.48771e-11
-2.5948e-11
2.31672e-11
-8.80266e-11
9.12791e-11
-3.24148e-11
2.91562e-11
-9.48821e-11
9.86545e-11
-4.11044e-11
3.73398e-11
-1.02721e-10
1.0695e-10
-5.30084e-11
4.87948e-11
-5.89375e-11
-3.54846e-11
5.98265e-11
3.43081e-11
-6.30754e-11
-4.84091e-11
6.38521e-11
4.74848e-11
-6.54755e-11
-6.751e-11
6.76292e-11
3.44894e-11
3.07945e-11