/*--------------------------------*- C++ -*----------------------------------*\
| =========                 |                                                 |
| \\      /  F ield         | foam-extend: Open Source CFD                    |
|  \\    /   O peration     | Version:     4.0                                |
|   \\  /    A nd           | Web:         http://www.foam-extend.org         |
|    \\/     M anipulation  |                                                 |
\*---------------------------------------------------------------------------*/
FoamFile
{
    version     2.0;
    format      ascii;
    class       volVectorField;
    location    "0.0014";
    object      U;
}
// * * * * * * * * * * * * * * * * * * * * * * * * * * * * * * * * * * * * * //

dimensions      [0 1 -1 0 0 0 0];

internalField   nonuniform List<vector> 
28770
(
(0.00318766 9.26603e-08 0)
(0.00318728 2.80459e-07 0)
(0.00318651 4.73161e-07 0)
(0.00318536 6.72256e-07 0)
(0.00318378 8.82187e-07 0)
(0.00318177 1.10418e-06 0)
(0.00317929 1.34402e-06 0)
(0.00317631 1.59938e-06 0)
(0.00317277 1.88363e-06 0)
(0.00316863 2.19825e-06 0)
(0.00316382 2.54444e-06 0)
(0.00315828 2.92597e-06 0)
(0.00315192 3.35057e-06 0)
(0.00314463 3.82884e-06 0)
(0.00313633 4.36077e-06 0)
(0.00312688 4.95488e-06 0)
(0.00311616 5.62237e-06 0)
(0.003104 6.36983e-06 0)
(0.00309023 7.20285e-06 0)
(0.00307467 8.13913e-06 0)
(0.00305708 9.18886e-06 0)
(0.00303727 1.03574e-05 0)
(0.00301491 1.16685e-05 0)
(0.00298979 1.31221e-05 0)
(0.00296147 1.47485e-05 0)
(0.00292978 1.65409e-05 0)
(0.00289411 1.85479e-05 0)
(0.00285432 2.07355e-05 0)
(0.00280965 2.31882e-05 0)
(0.00276 2.58271e-05 0)
(0.00270445 2.87817e-05 0)
(0.00264298 3.19032e-05 0)
(0.00257451 3.54088e-05 0)
(0.00249907 3.90232e-05 0)
(0.00241556 4.30884e-05 0)
(0.00232401 4.71653e-05 0)
(0.00222348 5.17265e-05 0)
(0.00211387 5.61804e-05 0)
(0.00199467 6.10901e-05 0)
(0.00186565 6.57579e-05 0)
(0.00172684 7.07589e-05 0)
(0.00157797 7.5387e-05 0)
(0.0014197 8.01212e-05 0)
(0.00125189 8.43652e-05 0)
(0.00107579 8.84316e-05 0)
(0.000891599 9.18813e-05 0)
(0.000701008 9.48784e-05 0)
(0.000504651 9.71414e-05 0)
(0.000304558 9.87352e-05 0)
(0.000101704 9.95249e-05 0)
(0.00318802 2.76909e-07 0)
(0.00318765 8.38868e-07 0)
(0.00318689 1.40876e-06 0)
(0.00318575 2.00241e-06 0)
(0.00318421 2.62904e-06 0)
(0.00318223 3.29431e-06 0)
(0.00317978 4.00746e-06 0)
(0.00317684 4.7816e-06 0)
(0.00317335 5.62856e-06 0)
(0.00316928 6.56231e-06 0)
(0.00316454 7.59367e-06 0)
(0.00315908 8.73463e-06 0)
(0.0031528 1.00116e-05 0)
(0.00314562 1.14312e-05 0)
(0.00313743 1.30191e-05 0)
(0.00312812 1.47962e-05 0)
(0.00311754 1.67872e-05 0)
(0.00310555 1.90163e-05 0)
(0.00309196 2.15137e-05 0)
(0.00307662 2.43054e-05 0)
(0.00305925 2.74394e-05 0)
(0.0030397 3.09277e-05 0)
(0.00301761 3.4839e-05 0)
(0.0029928 3.91796e-05 0)
(0.00296482 4.40338e-05 0)
(0.00293349 4.93878e-05 0)
(0.00289821 5.53732e-05 0)
(0.00285886 6.19165e-05 0)
(0.00281463 6.92104e-05 0)
(0.00276548 7.71023e-05 0)
(0.00271041 8.58717e-05 0)
(0.00264947 9.52351e-05 0)
(0.00258148 0.000105595 0)
(0.00250658 0.000116486 0)
(0.00242354 0.000128435 0)
(0.00233247 0.000140779 0)
(0.0022323 0.000154149 0)
(0.00212304 0.000167702 0)
(0.00200405 0.000182079 0)
(0.00187512 0.000196346 0)
(0.00173627 0.000211034 0)
(0.00158714 0.000225218 0)
(0.00142849 0.00023924 0)
(0.00126003 0.000252263 0)
(0.00108315 0.000264415 0)
(0.000897911 0.000275014 0)
(0.000706158 0.000284038 0)
(0.000508429 0.000290998 0)
(0.000306892 0.000295822 0)
(0.000102478 0.000298251 0)
(0.00318875 4.58864e-07 0)
(0.00318839 1.38283e-06 0)
(0.00318766 2.32651e-06 0)
(0.00318654 3.3049e-06 0)
(0.00318504 4.33762e-06 0)
(0.00318312 5.43542e-06 0)
(0.00318075 6.61372e-06 0)
(0.00317789 7.89329e-06 0)
(0.00317452 9.29269e-06 0)
(0.00317055 1.08306e-05 0)
(0.00316596 1.25315e-05 0)
(0.00316064 1.4421e-05 0)
(0.00315455 1.65247e-05 0)
(0.00314758 1.887e-05 0)
(0.00313963 2.14934e-05 0)
(0.00313058 2.44333e-05 0)
(0.00312029 2.77234e-05 0)
(0.00310863 3.14081e-05 0)
(0.00309541 3.55394e-05 0)
(0.00308048 4.01606e-05 0)
(0.00306357 4.53437e-05 0)
(0.00304452 5.11209e-05 0)
(0.00302298 5.76006e-05 0)
(0.0029988 6.47914e-05 0)
(0.00297147 7.28485e-05 0)
(0.00294088 8.17274e-05 0)
(0.00290637 9.16723e-05 0)
(0.00286787 0.000102535 0)
(0.00282451 0.000114691 0)
(0.00277632 0.000127804 0)
(0.00272221 0.000142476 0)
(0.00266229 0.000158047 0)
(0.00259532 0.000175455 0)
(0.00252143 0.000193565 0)
(0.00243936 0.000213753 0)
(0.00234919 0.000234286 0)
(0.00224984 0.000257001 0)
(0.00214123 0.000279547 0)
(0.00202272 0.000304085 0)
(0.001894 0.000327857 0)
(0.00175512 0.000352969 0)
(0.00160559 0.000376679 0)
(0.00144618 0.000400628 0)
(0.00127655 0.000422477 0)
(0.00109807 0.000443195 0)
(0.000910812 0.000461035 0)
(0.000716659 0.000476399 0)
(0.000516189 0.00048814 0)
(0.000311661 0.000496347 0)
(0.000104083 0.00050045 0)
(0.00318982 6.31947e-07 0)
(0.00318948 1.90581e-06 0)
(0.00318878 3.21151e-06 0)
(0.00318772 4.56313e-06 0)
(0.00318629 5.98247e-06 0)
(0.00318445 7.49546e-06 0)
(0.00318219 9.12379e-06 0)
(0.00317946 1.08885e-05 0)
(0.00317623 1.28206e-05 0)
(0.00317245 1.49427e-05 0)
(0.00316805 1.72917e-05 0)
(0.00316299 1.98987e-05 0)
(0.00315716 2.28018e-05 0)
(0.00315049 2.60443e-05 0)
(0.00314288 2.96701e-05 0)
(0.00313422 3.37293e-05 0)
(0.00312437 3.8278e-05 0)
(0.0031132 4.33707e-05 0)
(0.00310053 4.90846e-05 0)
(0.00308621 5.54807e-05 0)
(0.00306999 6.26494e-05 0)
(0.0030517 7.06514e-05 0)
(0.003031 7.96255e-05 0)
(0.00300773 8.95903e-05 0)
(0.00298141 0.000100765 0)
(0.00295193 0.000113092 0)
(0.00291859 0.000126894 0)
(0.0028814 0.000142 0)
(0.00283937 0.000158895 0)
(0.00279269 0.000177176 0)
(0.00274002 0.00019758 0)
(0.00268176 0.000219358 0)
(0.00261626 0.000243589 0)
(0.00254409 0.000269026 0)
(0.00246341 0.000297159 0)
(0.00237482 0.000326148 0)
(0.00227662 0.000357837 0)
(0.00216915 0.000389857 0)
(0.00205135 0.000424181 0)
(0.00192298 0.000458131 0)
(0.00178408 0.000493436 0)
(0.00163381 0.000527475 0)
(0.00147333 0.00056139 0)
(0.00130171 0.000592886 0)
(0.00112091 0.000622458 0)
(0.000930423 0.00064827 0)
(0.000732699 0.000670343 0)
(0.000527961 0.000687381 0)
(0.000318946 0.000699222 0)
(0.000106495 0.000705187 0)
(0.00319123 7.98497e-07 0)
(0.00319091 2.40299e-06 0)
(0.00319025 4.04455e-06 0)
(0.00318926 5.74833e-06 0)
(0.00318792 7.54051e-06 0)
(0.0031862 9.4473e-06 0)
(0.00318407 1.14975e-05 0)
(0.00318152 1.37274e-05 0)
(0.00317848 1.61586e-05 0)
(0.00317494 1.8839e-05 0)
(0.00317081 2.18013e-05 0)
(0.00316605 2.50893e-05 0)
(0.00316057 2.87576e-05 0)
(0.00315431 3.28512e-05 0)
(0.00314715 3.7429e-05 0)
(0.003139 4.25534e-05 0)
(0.00312973 4.83021e-05 0)
(0.00311922 5.47419e-05 0)
(0.00310726 6.19752e-05 0)
(0.00309376 7.00636e-05 0)
(0.00307843 7.91467e-05 0)
(0.00306114 8.92872e-05 0)
(0.00304153 0.000100673 0)
(0.00301949 0.000113324 0)
(0.00299448 0.000127524 0)
(0.00296647 0.000143202 0)
(0.00293468 0.000160802 0)
(0.0028992 0.000180048 0)
(0.00285895 0.000201666 0)
(0.0028142 0.000225006 0)
(0.00276352 0.000251253 0)
(0.00270734 0.000279113 0)
(0.00264396 0.000310489 0)
(0.00257388 0.000343092 0)
(0.00249529 0.00037981 0)
(0.0024086 0.000417028 0)
(0.00231222 0.000458767 0)
(0.00220618 0.000499983 0)
(0.00208957 0.000545552 0)
(0.00196182 0.000589459 0)
(0.00182301 0.000636566 0)
(0.00167213 0.000680933 0)
(0.00151023 0.000726229 0)
(0.00133634 0.000767619 0)
(0.0011523 0.000807132 0)
(0.0009577 0.000841286 0)
(0.000754955 0.000870809 0)
(0.000544467 0.000893459 0)
(0.000329095 0.000909313 0)
(0.000109924 0.000917261 0)
(0.00319295 9.51814e-07 0)
(0.00319266 2.86367e-06 0)
(0.00319205 4.81821e-06 0)
(0.00319115 6.85112e-06 0)
(0.00318991 8.98728e-06 0)
(0.00318833 1.12607e-05 0)
(0.00318637 1.37069e-05 0)
(0.00318403 1.63594e-05 0)
(0.00318124 1.92625e-05 0)
(0.00317797 2.2461e-05 0)
(0.00317418 2.59951e-05 0)
(0.00316979 2.9921e-05 0)
(0.00316475 3.4296e-05 0)
(0.00315898 3.9185e-05 0)
(0.00315238 4.46573e-05 0)
(0.00314487 5.07825e-05 0)
(0.0031363 5.76539e-05 0)
(0.00312659 6.53607e-05 0)
(0.00311553 7.40133e-05 0)
(0.00310303 8.3703e-05 0)
(0.00308881 9.45934e-05 0)
(0.00307278 0.000106755 0)
(0.00305453 0.000120422 0)
(0.00303403 0.000135627 0)
(0.00301066 0.000152703 0)
(0.00298451 0.000171588 0)
(0.00295466 0.0001928 0)
(0.00292141 0.000216054 0)
(0.00288339 0.00024217 0)
(0.00284124 0.00027048 0)
(0.002793 0.000302269 0)
(0.00273976 0.000336241 0)
(0.00267891 0.000374331 0)
(0.00261197 0.000414346 0)
(0.00253581 0.000459038 0)
(0.00245213 0.000505096 0)
(0.00235785 0.000556049 0)
(0.00225412 0.000607519 0)
(0.00213896 0.000663406 0)
(0.0020121 0.000718739 0)
(0.00187364 0.000776969 0)
(0.0017216 0.000833325 0)
(0.00155821 0.000889993 0)
(0.00138093 0.000942939 0)
(0.00119304 0.000992977 0)
(0.000992771 0.00103694 0)
(0.000783785 0.0010747 0)
(0.000565662 0.00110401 0)
(0.000342251 0.00112442 0)
(0.000114278 0.00113474 0)
(0.00319496 1.08729e-06 0)
(0.0031947 3.28078e-06 0)
(0.00319416 5.52368e-06 0)
(0.00319334 7.85085e-06 0)
(0.00319223 1.03002e-05 0)
(0.00319082 1.29058e-05 0)
(0.00318907 1.57102e-05 0)
(0.00318696 1.87548e-05 0)
(0.00318446 2.20877e-05 0)
(0.00318153 2.57526e-05 0)
(0.00317812 2.98111e-05 0)
(0.00317418 3.43211e-05 0)
(0.00316964 3.93453e-05 0)
(0.00316445 4.49612e-05 0)
(0.0031585 5.12484e-05 0)
(0.00315173 5.82952e-05 0)
(0.003144 6.62035e-05 0)
(0.00313523 7.50762e-05 0)
(0.00312523 8.50451e-05 0)
(0.00311391 9.62198e-05 0)
(0.003101 0.000108789 0)
(0.00308644 0.000122838 0)
(0.0030698 0.000138648 0)
(0.0030511 0.000156248 0)
(0.0030297 0.000176063 0)
(0.00300573 0.000197985 0)
(0.00297821 0.000222686 0)
(0.00294754 0.00024976 0)
(0.00291225 0.000280332 0)
(0.00287305 0.000313392 0)
(0.00282791 0.000350872 0)
(0.00277791 0.000390657 0)
(0.00272044 0.000435998 0)
(0.00265683 0.000482981 0)
(0.00258414 0.000536834 0)
(0.00250359 0.000591031 0)
(0.00241251 0.000653294 0)
(0.0023113 0.000714065 0)
(0.00219847 0.000783274 0)
(0.00207301 0.000849103 0)
(0.00193522 0.000921778 0)
(0.0017828 0.000989796 0)
(0.00161756 0.00106053 0)
(0.00143718 0.00112534 0)
(0.00124434 0.00118786 0)
(0.00103772 0.00124229 0)
(0.00082063 0.0012896 0)
(0.000593152 0.00132615 0)
(0.000359183 0.00135179 0)
(0.000120027 0.0013647 0)
(0.00319723 1.21092e-06 0)
(0.003197 3.65086e-06 0)
(0.00319653 6.14628e-06 0)
(0.00319583 8.73682e-06 0)
(0.00319486 1.14613e-05 0)
(0.00319363 1.43619e-05 0)
(0.0031921 1.74811e-05 0)
(0.00319027 2.08746e-05 0)
(0.00318809 2.45844e-05 0)
(0.00318554 2.86687e-05 0)
(0.00318256 3.31917e-05 0)
(0.00317913 3.82186e-05 0)
(0.00317517 4.38233e-05 0)
(0.00317064 5.0087e-05 0)
(0.00316544 5.71071e-05 0)
(0.00315951 6.49755e-05 0)
(0.00315273 7.38171e-05 0)
(0.00314504 8.37369e-05 0)
(0.00313624 9.48958e-05 0)
(0.00312628 0.000107413 0)
(0.00311488 0.000121502 0)
(0.00310202 0.000137276 0)
(0.00308725 0.000155039 0)
(0.00307066 0.000174848 0)
(0.00305152 0.000197165 0)
(0.00303016 0.000221915 0)
(0.00300536 0.000249824 0)
(0.00297786 0.000280518 0)
(0.0029457 0.000315176 0)
(0.00291031 0.000352873 0)
(0.00286865 0.000395511 0)
(0.00282311 0.000441205 0)
(0.0027693 0.000492971 0)
(0.00271069 0.000547446 0)
(0.0026416 0.000609132 0)
(0.00256616 0.000672719 0)
(0.00247832 0.00074431 0)
(0.00238139 0.000816577 0)
(0.00227119 0.000896603 0)
(0.00214771 0.000975921 0)
(0.0020114 0.00106088 0)
(0.00185746 0.00114371 0)
(0.00169094 0.00122804 0)
(0.00150561 0.00130771 0)
(0.00130755 0.00138367 0)
(0.00109238 0.00145119 0)
(0.000865902 0.00150953 0)
(0.000626558 0.00155526 0)
(0.000379997 0.00158719 0)
(0.000126925 0.00160343 0)
(0.00319972 1.31392e-06 0)
(0.00319953 3.96581e-06 0)
(0.00319914 6.67696e-06 0)
(0.00319855 9.49129e-06 0)
(0.00319775 1.24527e-05 0)
(0.00319672 1.56057e-05 0)
(0.00319544 1.89988e-05 0)
(0.00319391 2.26836e-05 0)
(0.00319209 2.67187e-05 0)
(0.00318995 3.11641e-05 0)
(0.00318746 3.6085e-05 0)
(0.00318458 4.15586e-05 0)
(0.00318127 4.76632e-05 0)
(0.00317746 5.44889e-05 0)
(0.00317309 6.21447e-05 0)
(0.00316809 7.07298e-05 0)
(0.00316238 8.03813e-05 0)
(0.00315587 9.12194e-05 0)
(0.00314841 0.000103423 0)
(0.00313996 0.000117125 0)
(0.00313024 0.000132567 0)
(0.00311927 0.000149874 0)
(0.00310659 0.000169391 0)
(0.00309235 0.000191186 0)
(0.00307578 0.000215798 0)
(0.00305729 0.00024312 0)
(0.0030356 0.000274043 0)
(0.00301153 0.000308057 0)
(0.00298309 0.000346715 0)
(0.0029517 0.000388646 0)
(0.0029144 0.000436635 0)
(0.00287333 0.000487649 0)
(0.00282446 0.000546658 0)
(0.00277057 0.000607636 0)
(0.00270681 0.000679174 0)
(0.00263596 0.000750447 0)
(0.00255336 0.000835268 0)
(0.00246042 0.000916415 0)
(0.0023545 0.00101331 0)
(0.00223387 0.00110318 0)
(0.0020995 0.00120723 0)
(0.00194647 0.00130359 0)
(0.00177815 0.00140623 0)
(0.00158956 0.00150103 0)
(0.00138483 0.00159353 0)
(0.00116096 0.00167523 0)
(0.000922535 0.00174663 0)
(0.000669196 0.00180254 0)
(0.000406345 0.0018418 0)
(0.000135923 0.00186175 0)
(0.0032024 1.39792e-06 0)
(0.00320225 4.21922e-06 0)
(0.00320194 7.10621e-06 0)
(0.00320148 1.01047e-05 0)
(0.00320084 1.3257e-05 0)
(0.00320004 1.66147e-05 0)
(0.00319904 2.02321e-05 0)
(0.00319783 2.41606e-05 0)
(0.00319639 2.8459e-05 0)
(0.00319471 3.31964e-05 0)
(0.00319274 3.84462e-05 0)
(0.00319046 4.42851e-05 0)
(0.00318784 5.08032e-05 0)
(0.00318482 5.80946e-05 0)
(0.00318134 6.62762e-05 0)
(0.00317737 7.54579e-05 0)
(0.0031728 8.57877e-05 0)
(0.0031676 9.73986e-05 0)
(0.00316161 0.000110483 0)
(0.00315482 0.00012519 0)
(0.00314694 0.000141777 0)
(0.00313807 0.000160397 0)
(0.0031277 0.000181422 0)
(0.00311611 0.000204949 0)
(0.00310238 0.000231543 0)
(0.0030872 0.000261156 0)
(0.00306895 0.000294693 0)
(0.00304902 0.000331758 0)
(0.00302461 0.000373856 0)
(0.00299836 0.000419877 0)
(0.0029656 0.000472367 0)
(0.00293084 0.000528899 0)
(0.0028868 0.000593711 0)
(0.00284045 0.000662155 0)
(0.00278145 0.00074102 0)
(0.00271901 0.000822348 0)
(0.00264082 0.000916153 0)
(0.00255573 0.00101056 0)
(0.00245406 0.00111822 0)
(0.00233761 0.00122474 0)
(0.00220764 0.00134184 0)
(0.00205231 0.00145736 0)
(0.00188426 0.00157685 0)
(0.00168901 0.00169177 0)
(0.00147812 0.00180255 0)
(0.0012423 0.00190281 0)
(0.000990563 0.00199023 0)
(0.000719742 0.00205976 0)
(0.00043798 0.00210853 0)
(0.000146463 0.00213355 0)
(0.00320523 1.46336e-06 0)
(0.00320512 4.4143e-06 0)
(0.0032049 7.43229e-06 0)
(0.00320457 1.05674e-05 0)
(0.00320412 1.38652e-05 0)
(0.00320354 1.73763e-05 0)
(0.00320283 2.1161e-05 0)
(0.00320196 2.52725e-05 0)
(0.00320094 2.9775e-05 0)
(0.00319973 3.47387e-05 0)
(0.00319832 4.02382e-05 0)
(0.00319669 4.6357e-05 0)
(0.00319479 5.31954e-05 0)
(0.00319261 6.08502e-05 0)
(0.00319008 6.94394e-05 0)
(0.0031872 7.90898e-05 0)
(0.00318385 8.99503e-05 0)
(0.00318005 0.000102171 0)
(0.00317562 0.000115957 0)
(0.0031706 0.000131471 0)
(0.00316471 0.000148992 0)
(0.00315808 0.000168687 0)
(0.00315021 0.000190959 0)
(0.00314143 0.000215922 0)
(0.00313082 0.000244212 0)
(0.00311912 0.000275761 0)
(0.00310473 0.000311629 0)
(0.00308905 0.000351295 0)
(0.00306938 0.000396652 0)
(0.00304817 0.000446146 0)
(0.00302114 0.000503303 0)
(0.00299215 0.000564363 0)
(0.00295494 0.000636032 0)
(0.00291481 0.000710147 0)
(0.00286366 0.000799348 0)
(0.00280744 0.000887309 0)
(0.00273766 0.000996822 0)
(0.00265827 0.00109841 0)
(0.00256421 0.00122885 0)
(0.00245283 0.00134386 0)
(0.00232728 0.00148856 0)
(0.00217658 0.00162027 0)
(0.00200767 0.00176379 0)
(0.00181057 0.00189927 0)
(0.00159147 0.00203256 0)
(0.00134472 0.00215352 0)
(0.00107621 0.00225972 0)
(0.000785034 0.00234463 0)
(0.000478607 0.00240435 0)
(0.00016042 0.00243511 0)
(0.00320816 1.5037e-06 0)
(0.0032081 4.53984e-06 0)
(0.00320797 7.64753e-06 0)
(0.00320778 1.087e-05 0)
(0.00320752 1.42646e-05 0)
(0.00320718 1.7881e-05 0)
(0.00320676 2.17744e-05 0)
(0.00320626 2.60057e-05 0)
(0.00320566 3.06438e-05 0)
(0.00320496 3.57608e-05 0)
(0.00320412 4.14303e-05 0)
(0.00320316 4.7743e-05 0)
(0.00320202 5.47998e-05 0)
(0.00320072 6.27005e-05 0)
(0.0031992 7.15744e-05 0)
(0.00319745 8.15509e-05 0)
(0.00319541 9.27896e-05 0)
(0.00319307 0.000105451 0)
(0.00319029 0.000119742 0)
(0.00318716 0.000135844 0)
(0.00318338 0.000154053 0)
(0.00317916 0.000174555 0)
(0.00317395 0.000197768 0)
(0.00316825 0.000223854 0)
(0.00316097 0.000253443 0)
(0.00315321 0.000286567 0)
(0.0031429 0.000324238 0)
(0.00313227 0.00036615 0)
(0.00311749 0.00041402 0)
(0.00310279 0.000466767 0)
(0.00308135 0.000527397 0)
(0.00306081 0.00059324 0)
(0.00302954 0.000669638 0)
(0.00300037 0.000750865 0)
(0.00295492 0.000846301 0)
(0.00291236 0.000944875 0)
(0.00284753 0.00106222 0)
(0.00278292 0.00117937 0)
(0.00269439 0.00131909 0)
(0.0025919 0.00145552 0)
(0.00247828 0.00161163 0)
(0.00232179 0.00176878 0)
(0.00215746 0.00193414 0)
(0.00195219 0.00209764 0)
(0.00172707 0.00225738 0)
(0.00146472 0.00240571 0)
(0.0011777 0.0025369 0)
(0.000861364 0.00264345 0)
(0.000526571 0.00271885 0)
(0.000176574 0.00275797 0)
(0.00321115 1.5243e-06 0)
(0.00321113 4.59682e-06 0)
(0.0032111 7.74248e-06 0)
(0.00321105 1.10109e-05 0)
(0.00321098 1.44493e-05 0)
(0.0032109 1.81139e-05 0)
(0.00321079 2.20609e-05 0)
(0.00321065 2.63527e-05 0)
(0.00321049 3.10547e-05 0)
(0.00321029 3.62436e-05 0)
(0.00321006 4.20027e-05 0)
(0.00320977 4.84129e-05 0)
(0.00320944 5.55803e-05 0)
(0.00320903 6.36133e-05 0)
(0.00320854 7.26429e-05 0)
(0.00320797 8.28008e-05 0)
(0.00320726 9.42535e-05 0)
(0.00320644 0.000107167 0)
(0.00320539 0.000121757 0)
(0.0032042 0.000138223 0)
(0.00320262 0.000156859 0)
(0.00320089 0.00017788 0)
(0.00319848 0.00020172 0)
(0.00319594 0.000228564 0)
(0.00319222 0.000259078 0)
(0.00318844 0.000293319 0)
(0.00318266 0.000332386 0)
(0.00317696 0.000375948 0)
(0.0031679 0.000425961 0)
(0.00315918 0.000481123 0)
(0.00314498 0.000545151 0)
(0.00313143 0.000614426 0)
(0.00310928 0.000696418 0)
(0.0030878 0.000782201 0)
(0.00305363 0.000887342 0)
(0.00301886 0.000991038 0)
(0.00296726 0.00112612 0)
(0.00290979 0.00124669 0)
(0.00283461 0.001419 0)
(0.00273928 0.00155418 0)
(0.00263402 0.001756 0)
(0.00249238 0.00193458 0)
(0.00232968 0.00212831 0)
(0.00212708 0.00232181 0)
(0.00189312 0.00251224 0)
(0.00161843 0.00269301 0)
(0.001309 0.00285258 0)
(0.000963195 0.00298381 0)
(0.000590737 0.00307664 0)
(0.000198719 0.00312522 0)
(0.00321415 1.52405e-06 0)
(0.00321418 4.58928e-06 0)
(0.00321425 7.72472e-06 0)
(0.00321434 1.09824e-05 0)
(0.00321447 1.44132e-05 0)
(0.00321463 1.80724e-05 0)
(0.00321483 2.20131e-05 0)
(0.00321507 2.6298e-05 0)
(0.00321535 3.09974e-05 0)
(0.00321567 3.61825e-05 0)
(0.00321603 4.19379e-05 0)
(0.00321645 4.83505e-05 0)
(0.00321691 5.55257e-05 0)
(0.00321743 6.35718e-05 0)
(0.00321798 7.26159e-05 0)
(0.00321861 8.28054e-05 0)
(0.00321926 9.42985e-05 0)
(0.00322 0.00010727 0)
(0.0032207 0.000121945 0)
(0.00322153 0.000138526 0)
(0.00322222 0.000157317 0)
(0.0032231 0.000178555 0)
(0.00322358 0.000202661 0)
(0.00322442 0.000229885 0)
(0.00322438 0.000260862 0)
(0.00322499 0.000295771 0)
(0.00322381 0.000335612 0)
(0.0032239 0.000380337 0)
(0.00322047 0.00043162 0)
(0.00321949 0.000488785 0)
(0.00321187 0.000554838 0)
(0.00320893 0.00062758 0)
(0.00319382 0.000712688 0)
(0.00318732 0.000804485 0)
(0.0031594 0.000914141 0)
(0.00314617 0.0010283 0)
(0.00309786 0.00116922 0)
(0.0030697 0.00130787 0)
(0.00299548 0.00148582 0)
(0.00292189 0.00165039 0)
(0.00285076 0.00185251 0)
(0.00268635 0.00206442 0)
(0.00253662 0.00229012 0)
(0.00232812 0.00252254 0)
(0.00209053 0.00275332 0)
(0.00179797 0.00297516 0)
(0.00146245 0.00317638 0)
(0.00108076 0.00334463 0)
(0.000665023 0.00346557 0)
(0.000224131 0.0035292 0)
(0.00321713 1.49397e-06 0)
(0.00321721 4.50507e-06 0)
(0.00321736 7.58839e-06 0)
(0.0032176 1.07906e-05 0)
(0.00321792 1.41623e-05 0)
(0.00321834 1.77581e-05 0)
(0.00321884 2.1631e-05 0)
(0.00321945 2.58478e-05 0)
(0.00322017 3.04705e-05 0)
(0.003221 3.55737e-05 0)
(0.00322197 4.1239e-05 0)
(0.00322308 4.75551e-05 0)
(0.00322433 5.46262e-05 0)
(0.00322577 6.25593e-05 0)
(0.00322737 7.14867e-05 0)
(0.0032292 8.1545e-05 0)
(0.00323121 9.29067e-05 0)
(0.00323351 0.000105743 0)
(0.00323598 0.000120276 0)
(0.00323883 0.000136721 0)
(0.0032418 0.000155373 0)
(0.00324529 0.000176498 0)
(0.00324875 0.000200511 0)
(0.00325293 0.000227698 0)
(0.00325674 0.000258675 0)
(0.00326164 0.000293712 0)
(0.00326546 0.000333756 0)
(0.00327097 0.000378929 0)
(0.00327409 0.000430812 0)
(0.00327983 0.000489014 0)
(0.00328088 0.000556413 0)
(0.00328599 0.000631196 0)
(0.0032825 0.000719111 0)
(0.00328505 0.000814443 0)
(0.00327278 0.000930084 0)
(0.00326862 0.00104905 0)
(0.003241 0.00120469 0)
(0.00321979 0.00134382 0)
(0.00317 0.00156872 0)
(0.00309833 0.00169291 0)
(0.00303942 0.00199076 0)
(0.00292087 0.00224303 0)
(0.00277824 0.00248249 0)
(0.00258061 0.00276083 0)
(0.0023363 0.00303459 0)
(0.00203267 0.00331075 0)
(0.00167076 0.00355782 0)
(0.00124636 0.00376712 0)
(0.000771465 0.00391781 0)
(0.000261018 0.00399801 0)
(0.00322003 1.44298e-06 0)
(0.00322015 4.3575e-06 0)
(0.0032204 7.33874e-06 0)
(0.00322078 1.04337e-05 0)
(0.00322129 1.36948e-05 0)
(0.00322195 1.71713e-05 0)
(0.00322276 2.09217e-05 0)
(0.00322373 2.50014e-05 0)
(0.00322487 2.94787e-05 0)
(0.00322621 3.44203e-05 0)
(0.00322777 3.99083e-05 0)
(0.00322956 4.60334e-05 0)
(0.0032316 5.28902e-05 0)
(0.00323394 6.05921e-05 0)
(0.00323658 6.92613e-05 0)
(0.00323959 7.90388e-05 0)
(0.00324295 9.00866e-05 0)
(0.0032468 0.000102583 0)
(0.00325103 0.000116744 0)
(0.0032559 0.000132797 0)
(0.00326116 0.000151022 0)
(0.00326729 0.0001717 0)
(0.00327371 0.000195233 0)
(0.00328137 0.000221954 0)
(0.00328901 0.00025243 0)
(0.00329851 0.000287049 0)
(0.00330725 0.00032664 0)
(0.00331893 0.000371581 0)
(0.00332826 0.000423192 0)
(0.00334248 0.000481639 0)
(0.00335109 0.000549185 0)
(0.00336824 0.000625243 0)
(0.00337325 0.00071413 0)
(0.00339389 0.000812893 0)
(0.00338912 0.00093092 0)
(0.00341505 0.00105787 0)
(0.0033865 0.00121779 0)
(0.00342615 0.00137543 0)
(0.0033373 0.00160494 0)
(0.00343238 0.00177685 0)
(0.00332587 0.00200641 0)
(0.00308213 0.00204708 0)
(0.00299517 0.00233296 0)
(0.00284373 0.00265485 0)
(0.00263463 0.00298531 0)
(0.00234823 0.00332529 0)
(0.00197857 0.00365806 0)
(0.00153049 0.00396289 0)
(0.00101536 0.00420823 0)
(0.00044928 0.0043712 0)
(0.00322281 1.37318e-06 0)
(0.00322297 4.14262e-06 0)
(0.00322331 6.97455e-06 0)
(0.00322383 9.91753e-06 0)
(0.00322453 1.30165e-05 0)
(0.00322541 1.63227e-05 0)
(0.00322651 1.98913e-05 0)
(0.00322783 2.37723e-05 0)
(0.00322939 2.80354e-05 0)
(0.00323122 3.27395e-05 0)
(0.00323334 3.79665e-05 0)
(0.00323579 4.38022e-05 0)
(0.00323859 5.03388e-05 0)
(0.0032418 5.76837e-05 0)
(0.00324544 6.59568e-05 0)
(0.0032496 7.52993e-05 0)
(0.00325427 8.58613e-05 0)
(0.00325962 9.78203e-05 0)
(0.00326557 0.000111383 0)
(0.00327239 0.000126775 0)
(0.0032799 0.000144271 0)
(0.00328858 0.000164163 0)
(0.00329795 0.000186817 0)
(0.00330894 0.000212623 0)
(0.00332047 0.000242065 0)
(0.0033343 0.000275671 0)
(0.00334823 0.000314086 0)
(0.0033655 0.00035802 0)
(0.00338185 0.000408335 0)
(0.0034032 0.000466045 0)
(0.0034215 0.000532212 0)
(0.0034475 0.000608428 0)
(0.00346624 0.000695734 0)
(0.00349732 0.000797077 0)
(0.00351265 0.000912274 0)
(0.00354952 0.0010485 0)
(0.00355196 0.00119875 0)
(0.00359888 0.00138649 0)
(0.00356305 0.00157149 0)
(0.00364658 0.00185078 0)
(0.00368067 0.00204431 0)
(0.0033661 0.00219143 0)
(0.00330365 0.00252451 0)
(0.00318022 0.00289394 0)
(0.00298667 0.0032871 0)
(0.00270678 0.00368826 0)
(0.00230271 0.00410509 0)
(0.00180161 0.00449073 0)
(0.00120637 0.00480178 0)
(0.000536045 0.00500114 0)
(0.00322542 1.27957e-06 0)
(0.00322564 3.85993e-06 0)
(0.00322606 6.50231e-06 0)
(0.0032267 9.24865e-06 0)
(0.00322757 1.21433e-05 0)
(0.00322868 1.52273e-05 0)
(0.00323005 1.85545e-05 0)
(0.0032317 2.21794e-05 0)
(0.00323365 2.61583e-05 0)
(0.00323595 3.0553e-05 0)
(0.0032386 3.54385e-05 0)
(0.00324167 4.08954e-05 0)
(0.00324519 4.70061e-05 0)
(0.00324923 5.38799e-05 0)
(0.00325382 6.16288e-05 0)
(0.00325907 7.03822e-05 0)
(0.003265 8.02837e-05 0)
(0.00327179 9.15105e-05 0)
(0.00327938 0.000104251 0)
(0.0032881 0.000118729 0)
(0.00329777 0.000135201 0)
(0.00330895 0.000153967 0)
(0.00332116 0.00017536 0)
(0.00333547 0.000199796 0)
(0.00335074 0.000227708 0)
(0.00336902 0.000259676 0)
(0.00338788 0.000296272 0)
(0.00341122 0.000338333 0)
(0.00343404 0.00038658 0)
(0.00346378 0.000442272 0)
(0.00349051 0.00050629 0)
(0.00352834 0.000580589 0)
(0.00355797 0.000666099 0)
(0.00360592 0.000766115 0)
(0.0036353 0.000880995 0)
(0.00369556 0.00101725 0)
(0.00371743 0.00117151 0)
(0.00379113 0.00136094 0)
(0.00379192 0.00156231 0)
(0.00387074 0.0018392 0)
(0.0040241 0.00203961 0)
(0.00368958 0.00229067 0)
(0.00366511 0.00266723 0)
(0.00357986 0.00309621 0)
(0.00341918 0.00356655 0)
(0.00318419 0.0040203 0)
(0.00271821 0.00456828 0)
(0.00216039 0.00507987 0)
(0.0014665 0.00549599 0)
(0.000654794 0.00576058 0)
(0.00322784 1.16685e-06 0)
(0.00322809 3.52213e-06 0)
(0.00322859 5.93505e-06 0)
(0.00322935 8.43812e-06 0)
(0.00323037 1.10776e-05 0)
(0.00323169 1.38981e-05 0)
(0.00323331 1.6935e-05 0)
(0.00323527 2.02431e-05 0)
(0.00323759 2.38762e-05 0)
(0.00324031 2.78925e-05 0)
(0.00324346 3.23591e-05 0)
(0.00324712 3.73488e-05 0)
(0.00325131 4.29391e-05 0)
(0.00325611 4.92309e-05 0)
(0.00326159 5.6326e-05 0)
(0.00326786 6.43431e-05 0)
(0.00327496 7.34238e-05 0)
(0.00328308 8.37281e-05 0)
(0.00329222 9.54299e-05 0)
(0.0033027 0.000108745 0)
(0.00331441 0.000123903 0)
(0.00332791 0.00014121 0)
(0.00334283 0.000160948 0)
(0.00336019 0.00018356 0)
(0.00337911 0.000209385 0)
(0.00340144 0.000239118 0)
(0.00342525 0.000273097 0)
(0.00345393 0.000312479 0)
(0.00348363 0.000357449 0)
(0.00352041 0.00041012 0)
(0.00355693 0.000469993 0)
(0.00360397 0.000541289 0)
(0.0036479 0.000621459 0)
(0.00370775 0.000719519 0)
(0.00375856 0.000827245 0)
(0.00383398 0.000965043 0)
(0.00388849 0.00110952 0)
(0.00398153 0.00130866 0)
(0.00403135 0.00150013 0)
(0.00413712 0.0017971 0)
(0.00435073 0.0019914 0)
(0.00404777 0.00233005 0)
(0.00407848 0.00274916 0)
(0.00404697 0.00324833 0)
(0.00392037 0.00385074 0)
(0.0037331 0.00459734 0)
(0.00329724 0.00530017 0)
(0.00263946 0.00597245 0)
(0.00175119 0.00653811 0)
(0.000671868 0.00688577 0)
(0.00323002 1.03903e-06 0)
(0.0032303 3.13234e-06 0)
(0.00323087 5.27281e-06 0)
(0.00323174 7.49949e-06 0)
(0.00323291 9.8448e-06 0)
(0.00323441 1.23492e-05 0)
(0.00323626 1.50516e-05 0)
(0.0032385 1.79938e-05 0)
(0.00324114 2.12268e-05 0)
(0.00324425 2.47997e-05 0)
(0.00324786 2.87741e-05 0)
(0.00325203 3.32156e-05 0)
(0.00325683 3.81965e-05 0)
(0.00326234 4.38056e-05 0)
(0.00326863 5.01285e-05 0)
(0.00327582 5.72837e-05 0)
(0.00328398 6.53911e-05 0)
(0.00329333 7.45964e-05 0)
(0.00330388 8.50585e-05 0)
(0.00331599 9.69747e-05 0)
(0.00332956 0.000110553 0)
(0.00334522 0.000126083 0)
(0.00336263 0.000143811 0)
(0.0033829 0.000164161 0)
(0.00340515 0.000187437 0)
(0.00343141 0.000214307 0)
(0.00345972 0.00024507 0)
(0.00349381 0.000280841 0)
(0.00352964 0.000321816 0)
(0.00357397 0.000369952 0)
(0.00361894 0.000425007 0)
(0.00367665 0.000490651 0)
(0.00373249 0.000565346 0)
(0.00380742 0.00065641 0)
(0.00387571 0.000758771 0)
(0.00397195 0.000887895 0)
(0.00405389 0.00102934 0)
(0.0041736 0.00121762 0)
(0.00427019 0.00141393 0)
(0.00440661 0.00169751 0)
(0.00468119 0.00188621 0)
(0.00443901 0.0022966 0)
(0.0045442 0.00274705 0)
(0.00459882 0.00329559 0)
(0.00457081 0.00395217 0)
(0.00452511 0.00490206 0)
(0.00413894 0.00581826 0)
(0.00344104 0.00677094 0)
(0.00237238 0.00762701 0)
(0.000962447 0.00818001 0)
(0.00323192 8.92664e-07 0)
(0.00323224 2.6894e-06 0)
(0.00323287 4.53202e-06 0)
(0.00323383 6.4461e-06 0)
(0.00323513 8.46183e-06 0)
(0.00323679 1.06113e-05 0)
(0.00323884 1.29326e-05 0)
(0.00324132 1.54654e-05 0)
(0.00324425 1.82444e-05 0)
(0.0032477 2.13187e-05 0)
(0.0032517 2.47378e-05 0)
(0.00325634 2.8561e-05 0)
(0.00326167 3.28516e-05 0)
(0.00326779 3.76799e-05 0)
(0.00327479 4.31295e-05 0)
(0.0032828 4.92999e-05 0)
(0.00329191 5.62898e-05 0)
(0.00330234 6.42378e-05 0)
(0.00331414 7.32694e-05 0)
(0.00332767 8.35762e-05 0)
(0.00334291 9.53269e-05 0)
(0.00336047 0.000108779 0)
(0.00338011 0.000124142 0)
(0.00340292 0.000141832 0)
(0.00342821 0.000162053 0)
(0.00345787 0.000185496 0)
(0.0034904 0.000212295 0)
(0.00352908 0.000243694 0)
(0.00357088 0.000279492 0)
(0.00362145 0.000322094 0)
(0.00367512 0.000370346 0)
(0.00374139 0.000429125 0)
(0.00381021 0.000494866 0)
(0.00389713 0.000577693 0)
(0.00398522 0.000668404 0)
(0.00409891 0.000788103 0)
(0.00421135 0.00091538 0)
(0.00435812 0.00109322 0)
(0.00450123 0.00127649 0)
(0.0046834 0.00154725 0)
(0.00500035 0.00171709 0)
(0.00485112 0.00217812 0)
(0.00505081 0.00264579 0)
(0.00522334 0.00323502 0)
(0.00533829 0.00397508 0)
(0.00547835 0.0050757 0)
(0.00524536 0.00627458 0)
(0.0045869 0.00763637 0)
(0.00331657 0.00899262 0)
(0.00140686 0.00995593 0)
(0.00323353 7.31736e-07 0)
(0.00323386 2.20691e-06 0)
(0.00323454 3.7175e-06 0)
(0.00323558 5.28856e-06 0)
(0.00323699 6.9462e-06 0)
(0.00323879 8.71234e-06 0)
(0.00324101 1.06173e-05 0)
(0.00324369 1.26956e-05 0)
(0.00324687 1.49777e-05 0)
(0.00325061 1.75036e-05 0)
(0.00325495 2.03138e-05 0)
(0.00325997 2.34557e-05 0)
(0.00326576 2.69827e-05 0)
(0.00327241 3.09527e-05 0)
(0.00328 3.54375e-05 0)
(0.00328871 4.05151e-05 0)
(0.00329862 4.6273e-05 0)
(0.00330996 5.28227e-05 0)
(0.00332282 6.0271e-05 0)
(0.00333758 6.87766e-05 0)
(0.00335424 7.84746e-05 0)
(0.00337344 8.95983e-05 0)
(0.00339499 0.00010231 0)
(0.00342001 0.000116966 0)
(0.0034479 0.000133743 0)
(0.00348061 0.000153225 0)
(0.0035167 0.000175542 0)
(0.00355961 0.000201727 0)
(0.0036064 0.000231704 0)
(0.00366294 0.000267384 0)
(0.00372375 0.000308105 0)
(0.00379858 0.000357582 0)
(0.00387796 0.000413689 0)
(0.00397734 0.00048383 0)
(0.00408174 0.000562495 0)
(0.00421378 0.000664669 0)
(0.00435266 0.000777517 0)
(0.00452719 0.000931145 0)
(0.00471476 0.00109839 0)
(0.00494208 0.00133718 0)
(0.00529648 0.00147536 0)
(0.00526592 0.00196383 0)
(0.0055763 0.00242431 0)
(0.00589707 0.00302668 0)