/*--------------------------------*- C++ -*----------------------------------*\
| =========                 |                                                 |
| \\      /  F ield         | foam-extend: Open Source CFD                    |
|  \\    /   O peration     | Version:     4.0                                |
|   \\  /    A nd           | Web:         http://www.foam-extend.org         |
|    \\/     M anipulation  |                                                 |
\*---------------------------------------------------------------------------*/
FoamFile
{
    version     2.0;
    format      ascii;
    class       volScalarField;
    location    "0.0011";
    object      k;
}
// * * * * * * * * * * * * * * * * * * * * * * * * * * * * * * * * * * * * * //

dimensions      [0 2 -2 0 0 0 0];

internalField   nonuniform List<scalar> 
28770
(
3.13702e-07
7.68187e-07
1.1543e-06
1.50584e-06
1.82776e-06
2.12531e-06
2.39948e-06
2.6511e-06
2.88064e-06
3.08849e-06
3.27504e-06
3.44065e-06
3.58571e-06
3.71061e-06
3.81573e-06
3.90143e-06
3.968e-06
4.01568e-06
4.04463e-06
4.05496e-06
4.04668e-06
4.01975e-06
3.97409e-06
3.90966e-06
3.82643e-06
3.72449e-06
3.60402e-06
3.46544e-06
3.30938e-06
3.13678e-06
2.94892e-06
2.74744e-06
2.53437e-06
2.31214e-06
2.08354e-06
1.85171e-06
1.62007e-06
1.39223e-06
1.17194e-06
9.62917e-07
7.68745e-07
5.92701e-07
4.37596e-07
3.05599e-07
1.98085e-07
1.15497e-07
5.72161e-08
2.13784e-08
4.48207e-09
3.13275e-10
9.47704e-06
2.294e-05
3.43908e-05
4.4831e-05
5.44001e-05
6.32427e-05
7.13916e-05
7.88703e-05
8.56929e-05
9.18712e-05
9.74159e-05
0.000102338
0.000106649
0.000110361
0.000113485
0.000116031
0.000118009
0.000119424
0.000120283
0.000120588
0.000120339
0.000119535
0.000118174
0.000116255
0.000113777
0.000110742
0.000107156
0.000103031
9.83862e-05
9.32495e-05
8.76591e-05
8.16638e-05
7.53241e-05
6.87121e-05
6.19112e-05
5.50146e-05
4.81241e-05
4.13475e-05
3.4796e-05
2.85804e-05
2.28072e-05
1.7574e-05
1.29642e-05
9.04248e-06
5.84962e-06
3.39873e-06
1.67146e-06
6.12559e-07
1.1878e-07
4.74003e-09
6.29264e-05
0.000158699
0.000238086
0.000309814
0.000375572
0.000436314
0.000492303
0.000543692
0.000590576
0.000633031
0.000671131
0.000704949
0.000734566
0.00076006
0.000781508
0.000798981
0.00081254
0.000822232
0.00082809
0.000830131
0.000828361
0.000822767
0.000813335
0.000800054
0.000782921
0.000761948
0.000737178
0.000708695
0.00067663
0.000641177
0.0006026
0.000561236
0.000517505
0.000471906
0.000425012
0.00037747
0.000329982
0.000283292
0.000238167
0.000195372
0.000155643
0.000119652
8.79756e-05
6.10589e-05
3.91841e-05
2.2445e-05
1.07285e-05
3.69089e-06
6.28411e-07
2.26236e-08
0.000209281
0.000554036
0.000838769
0.00109184
0.00132249
0.00153503
0.00173082
0.0019105
0.00207441
0.00222284
0.00235601
0.00247421
0.00257769
0.00266674
0.00274161
0.00280256
0.0028498
0.00288348
0.00290371
0.00291056
0.00290403
0.00288408
0.00285065
0.00280371
0.00274323
0.00266926
0.00258194
0.00248158
0.00236864
0.00224381
0.00210801
0.00196243
0.00180857
0.00164817
0.00148327
0.00131614
0.00114926
0.000985255
0.000826828
0.000676677
0.000537394
0.000411358
0.000300613
0.000206747
0.000130798
7.31835e-05
3.36245e-05
1.08677e-05
1.72572e-06
6.03271e-08
0.000494542
0.00135847
0.00208397
0.00272203
0.00329837
0.0038266
0.00431203
0.00475702
0.00516274
0.00552999
0.00585942
0.00615171
0.00640752
0.00662754
0.00681242
0.00696276
0.00707907
0.00716173
0.00721101
0.00722703
0.00720979
0.00715917
0.00707503
0.00695724
0.00680575
0.00662066
0.00640236
0.00615155
0.00586943
0.00555769
0.00521867
0.00485536
0.00447148
0.00407142
0.00366027
0.00324374
0.00282802
0.00241968
0.00202551
0.00165226
0.00130647
0.000994152
0.000720523
0.000489713
0.000304521
0.000166158
7.37224e-05
2.2854e-05
3.51108e-06
1.21262e-07
0.000960014
0.00270309
0.0042017
0.00551772
0.00669778
0.00777223
0.00875556
0.00965481
0.0104736
0.0112141
0.011878
0.0124667
0.0129816
0.0134242
0.0137958
0.0140976
0.0143306
0.0144955
0.0145929
0.0146229
0.0145856
0.0144805
0.0143075
0.0140662
0.0137565
0.0133785
0.0129331
0.0124217
0.0118467
0.0112115
0.010521
0.00978131
0.00899997
0.00818601
0.00734985
0.00650314
0.00565859
0.00482966
0.00403026
0.00327433
0.00257537
0.00194593
0.00139702
0.000937421
0.000573032
0.000305848
0.000132204
3.99442e-05
6.03248e-06
2.07078e-07
0.00164033
0.00469387
0.00737964
0.00974984
0.0118676
0.0137847
0.0155307
0.0171221
0.0185678
0.0198733
0.0210425
0.0220783
0.0229837
0.0237612
0.0244132
0.024942
0.0253491
0.025636
0.0258034
0.0258517
0.0257806
0.0255896
0.0252781
0.0248454
0.0242913
0.0236161
0.022821
0.0219088
0.0208835
0.0197516
0.0185216
0.0172043
0.0158134
0.0143652
0.0128782
0.0113735
0.00987371
0.00840324
0.00698711
0.00565056
0.00441819
0.00331302
0.0023553
0.00156095
0.000939728
0.000492775
0.000209103
6.2171e-05
9.29607e-06
3.17965e-07
0.00256124
0.00740765
0.011754
0.0156211
0.0190764
0.0221918
0.0250167
0.0275815
0.0299049
0.0319985
0.0338704
0.0355268
0.0369729
0.0382134
0.0392523
0.0400932
0.0407388
0.0411912
0.0414517
0.0415205
0.0413973
0.0410811
0.0405706
0.0398647
0.038963
0.0378658
0.0365751
0.0350952
0.033433
0.0315987
0.0296061
0.0274733
0.0252224
0.0228799
0.0204763
0.018046
0.0156265
0.0132575
0.0109803
0.0088365
0.00686698
0.00510992
0.00359863
0.0023582
0.00140149
0.000724916
0.000303617
8.93216e-05
1.32683e-05
4.52549e-07
0.00373845
0.0108896
0.0174054
0.0232558
0.0284963
0.0332126
0.0374741
0.0413293
0.0448105
0.0479394
0.0507313
0.0531976
0.0553476
0.0571891
0.0587289
0.0599724
0.060924
0.0615868
0.0619624
0.0620512
0.0618524
0.0613642
0.0605847
0.0595119
0.058145
0.0564844
0.054533
0.0522973
0.0497876
0.0470196
0.0440142
0.040799
0.0374077
0.0338809
0.0302653
0.0266133
0.0229825
0.0194339
0.0160309
0.0128373
0.00991563
0.00732422
0.00511315
0.0033176
0.00195069
0.000998335
0.000414204
0.000120959
1.78804e-05
6.08306e-07
0.00517727
0.0151524
0.0243567
0.0326944
0.0401929
0.046941
0.0530242
0.0585105
0.0634493
0.0678762
0.0718169
0.075291
0.078314
0.0808988
0.0830558
0.0847934
0.0861182
0.0870345
0.0875445
0.0876488
0.0873457
0.0866327
0.0855064
0.0839641
0.082004
0.0796267
0.0768363
0.0736419
0.0700585
0.0661085
0.0618223
0.0572396
0.0524093
0.0473903
0.0422502
0.0370655
0.0319196
0.0269012
0.022102
0.017614
0.0135265
0.00992243
0.00687183
0.00442033
0.0025762
0.0013075
0.000538671
0.00015647
2.3045e-05
7.82863e-07
0.00687211
0.0201736
0.03257
0.04389
0.054119
0.063335
0.0716336
0.0791004
0.0858037
0.0917958
0.0971165
0.101797
0.105861
0.109328
0.112216
0.114535
0.116296
0.117505
0.118165
0.118275
0.117835
0.116839
0.115284
0.113164
0.110477
0.107225
0.103411
0.0990493
0.0941598
0.0887734
0.0829326
0.0766921
0.07012
0.0632978
0.0563198
0.0492924
0.0423315
0.0355603
0.0291051
0.0230911
0.0176378
0.0128549
0.0088367
0.00564114
0.00326414
0.001646
0.0006746
0.000195233
2.8673e-05
9.75682e-07
0.00880724
0.0258975
0.0419502
0.0567145
0.0701199
0.0822219
0.0931172
0.102905
0.111672
0.11949
0.126414
0.13249
0.137754
0.142236
0.145959
0.14894
0.151193
0.152727
0.153546
0.15365
0.153036
0.151697
0.149629
0.146823
0.143278
0.138992
0.133974
0.128239
0.121816
0.114745
0.107083
0.0989033
0.0902972
0.0813738
0.0722597
0.0630973
0.0540421
0.0452585
0.0369133
0.0291686
0.0221736
0.0160628
0.0109611
0.00694846
0.00399888
0.00200844
0.000820579
0.000237013
3.47302e-05
1.18623e-06
0.0109577
0.0322376
0.0523506
0.0709644
0.08794
0.103305
0.117144
0.129566
0.140674
0.150556
0.159288
0.166934
0.173542
0.179154
0.183804
0.187515
0.190307
0.192191
0.193173
0.193253
0.192426
0.190686
0.188023
0.184428
0.179898
0.174431
0.168038
0.16074
0.152571
0.143587
0.133859
0.123483
0.112577
0.101283
0.0897661
0.0782099
0.0668165
0.0557987
0.0453701
0.0357319
0.0270563
0.0194857
0.013192
0.00830374
0.00476459
0.00239223
0.000977086
0.000282334
4.12417e-05
1.42412e-06
0.0132899
0.0390787
0.0635759
0.086361
0.107228
0.12617
0.143248
0.158571
0.172255
0.184408
0.195124
0.204485
0.212557
0.219396
0.225046
0.229541
0.232906
0.235156
0.236299
0.236335
0.235259
0.233061
0.229729
0.225253
0.219626
0.212849
0.204933
0.195904
0.185808
0.174713
0.162709
0.149919
0.13649
0.122601
0.10846
0.0942985
0.0803715
0.0669473
0.0542952
0.0426616
0.0322269
0.023068
0.0154712
0.0096723
0.00555253
0.00280365
0.00114761
0.000331848
4.79387e-05
1.61357e-06
0.0157624
0.046282
0.0753878
0.102572
0.127568
0.150318
0.170856
0.189284
0.205727
0.22031
0.233145
0.244333
0.25396
0.262096
0.2688
0.274115
0.278073
0.280695
0.281992
0.281963
0.280603
0.277898
0.273836
0.268402
0.261589
0.253396
0.243839
0.232949
0.220783
0.207423
0.192984
0.177612
0.161491
0.14484
0.127912
0.110992
0.0943913
0.078443
0.0634869
0.0498412
0.0376964
0.0267137
0.0177079
0.0110147
0.00639226
0.00328481
0.00134759
0.000390035
5.33393e-05
1.96896e-06
0.0183275
0.0536912
0.0875213
0.11923
0.148491
0.175178
0.199309
0.220971
0.240291
0.257405
0.272445
0.285531
0.296767
0.306242
0.314028
0.32018
0.324739
0.327731
0.32917
0.329057
0.327383
0.324135
0.319295
0.312849
0.304785
0.295106
0.283827
0.270989
0.256659
0.240936
0.223958
0.205901
0.186986
0.167472
0.147662
0.127893
0.108538
0.0899967
0.0726994
0.0571215
0.048306
0.0323812
0.0212473
0.013441
0.00813072
0.00443851
0.00197655
0.000616465
0.000114495
3.67335e-06
0.0209308
0.0611366
0.0996923
0.135942
0.169471
0.200122
0.227894
0.252835
0.275072
0.294756
0.312031
0.327037
0.339898
0.35072
0.35959
0.366576
0.371728
0.375079
0.376645
0.376428
0.374421
0.370605
0.364963
0.357475
0.348131
0.33693
0.323895
0.309072
0.292539
0.274416
0.254864
0.234089
0.212348
0.189947
0.167233
0.144598
0.122467
0.101299
0.0815788
0.0637413
0.0529424
0.0351857
0.0225315
0.0143083
0.00894178
0.0049752
0.00221238
0.000697506
0.000115143
3.74463e-06
0.0235128
0.0684411
0.111603
0.152283
0.189985
0.224542
0.255882
0.284052
0.309169
0.331388
0.350869
0.367768
0.382227
0.39437
0.404299
0.412095
0.417818
0.421508
0.423184
0.422851
0.420498
0.416108
0.409659
0.40113
0.390508
0.377795
0.363016
0.346225
0.327513
0.307018
0.284925
0.261472
0.236954
0.211718
0.18616
0.160719
0.135867
0.112105
0.0899517
0.069859
0.0571705
0.0374197
0.023784
0.0153181
0.00977909
0.00541041
0.0023668
0.00076092
0.000133366
5.14659e-06
0.0260101
0.0754272
0.122962
0.167851
0.209544
0.247796
0.282534
0.313807
0.341686
0.366336
0.387932
0.406643
0.42263
0.436033
0.446968
0.455531
0.46179
0.465791
0.46756
0.4671
0.464403
0.459449
0.452213
0.442673
0.430814
0.41664
0.400178
0.381492
0.360685
0.337912
0.313384
0.287368
0.260197
0.232258
0.203994
0.175892
0.148469
0.12226
0.0978178
0.0756649
0.0618078
0.0403062
0.0258232
0.016885
0.0108158
0.00526784
0.00223215
0.00076019
0.000140258
6.05501e-06
0.0283569
0.081921
0.133488
0.182258
0.227632
0.269294
0.307195
0.341328
0.37177
0.398677
0.422236
0.44263
0.460032
0.474599
0.486462
0.495728
0.502474
0.506754
0.508596
0.508008
0.504979
0.499488
0.491509
0.481017
0.467998
0.452455
0.434421
0.413966
0.391207
0.366316
0.339525
0.311133
0.281505
0.25107
0.220314
0.189772
0.160009
0.131608
0.105169
0.0812831
0.0664485
0.0437979
0.0283426
0.0186918
0.0119109
0.0057715
0.00262579
0.000836918
0.000171211
9.81674e-06
0.030488
0.0877584
0.142919
0.195146
0.243803
0.288533
0.329221
0.365893
0.398636
0.427567
0.452882
0.474779
0.493446
0.50905
0.521737
0.531624
0.538797
0.543317
0.545215
0.544499
0.541161
0.535178
0.526522
0.515167
0.501098
0.484319
0.464868
0.442822
0.418308
0.391515
0.362698
0.33218
0.30036
0.267702
0.234734
0.202032
0.17021
0.139902
0.11176
0.086412
0.0705426
0.0470225
0.0305459
0.0201893
0.0128464
0.00610916
0.00278202
0.00086258
0.000211188
1.02304e-05
0.0323416
0.09279
0.151022
0.206198
0.257655
0.305003
0.348071
0.386907
0.421597
0.452263
0.47908
0.502259
0.522003
0.53849
0.551875
0.562286
0.569816
0.574531
0.576466
0.575631
0.572018
0.565602
0.556356
0.54425
0.529271
0.511425
0.490752
0.467334
0.441312
0.412888
0.382334
0.349999
0.316308
0.281759
0.246913
0.212384
0.178825
0.146911
0.117336
0.090763
0.0737626
0.0495156
0.0321466
0.0211982
0.0134984
0.00642024
0.00300978
0.00101395
0.000266118
1.34557e-05
0.0338624
0.0968863
0.157596
0.215147
0.268854
0.318308
0.363307
0.403851
0.440089
0.472147
0.500171
0.524378
0.544982
0.562171
0.576111
0.586934
0.594742
0.599604
0.601559
0.600617
0.596771
0.589996
0.580263
0.567542
0.55182
0.533103
0.511435
0.486905
0.459661
0.429918
0.397963
0.364165
0.328973
0.292909
0.256565
0.220584
0.185647
0.152456
0.121729
0.0941556
0.0762793
0.0514166
0.0333475
0.0219458
0.0139821
0.00689434
0.00313248
0.00105429
0.000351204
4.05312e-05
0.0350046
0.0999437
0.162485
0.221784
0.277143
0.328139
0.374554
0.416356
0.45369
0.486739
0.51565
0.540605
0.56183
0.579525
0.593859
0.604974
0.612974
0.617932
0.619889
0.618858
0.614829
0.607779
0.597675
0.584492
0.568212
0.548845
0.526437
0.501082
0.472934
0.442218
0.409233
0.374362
0.338072
0.300906
0.263476
0.226448
0.190524
0.156423
0.124872
0.0965678
0.0781598
0.0529702
0.0343759
0.0226287
0.0144375
0.00726563
0.00330252
0.000995753
0.000261181
4.72442e-05
0.0357426
0.101914
0.16563
0.226039
0.282441
0.334403
0.381701
0.424288
0.462281
0.49592
0.525369
0.550783
0.572384
0.590379
0.604946
0.616228
0.624334
0.629338
0.631283
0.630182
0.626025
0.618788
0.60844
0.594953
0.578311
0.558525
0.535642
0.509761
0.481039
0.449707
0.416074
0.380532
0.343559
0.30571
0.267612
0.229946
0.193428
0.158792
0.12678
0.0981117
0.0792468
0.054171
0.0352403
0.02319
0.0147864
0.0072803
0.00339846
0.00117873
0.000557966
9.02823e-05
0.0360523
0.102741
0.16694
0.227794
0.284599
0.336923
0.384541
0.427404
0.465617
0.499431
0.529044
0.554606
0.576321
0.594402
0.60903
0.620349
0.62847
0.63347
0.635389
0.634241
0.630016
0.622691
0.612233
0.598613
0.581818
0.561858
0.538782
0.512689
0.483741
0.452171
0.418292
0.3825
0.345278
0.307186
0.268856
0.230974
0.194261
0.159459
0.127313
0.0985299
0.0794503
0.0547472
0.0356634
0.0234693
0.0149652
0.00736063
0.00351281
0.00130648
0.000402218
1e-15
0.0359266
0.102405
0.166383
0.226999
0.283554
0.33562
0.38298
0.425589
0.463567
0.497166
0.526575
0.551952
0.573508
0.591453
0.605966
0.617191
0.625237
0.63018
0.632062
0.630893
0.626664
0.619351
0.608921
0.595347
0.578613
0.558732
0.535751
0.509771
0.480954
0.449531
0.415816
0.380203
0.343173
0.305284
0.267164
0.229495
0.192994
0.158399
0.126458
0.0978757
0.0785505
0.0544647
0.0354744
0.0233264
0.014882
0.00727997
0.00345917
0.00126748
0.000404608
2.25372e-05
0.0353686
0.10091
0.163959
0.223652
0.2793
0.330488
0.377012
0.418846
0.456142
0.489115
0.517951
0.542826
0.563957
0.581547
0.595771
0.606771
0.614653
0.61949
0.621321
0.620156
0.615987
0.608786
0.598523
0.585169
0.56871
0.549157
0.526559
0.501014
0.472681
0.44179
0.408647
0.373642
0.337244
0.300003
0.262534
0.225506
0.189621
0.155602
0.124181
0.0960583
0.0768456
0.0534175
0.0347116
0.0228097
0.0145492
0.007078
0.00331377
0.00118886
0.00038188
3.61211e-05
0.0343955
0.098296
0.159733
0.217841
0.271951
0.321666
0.366804
0.407375
0.44355
0.475508
0.50342
0.527497
0.547952
0.564983
0.578756
0.589408
0.597041
0.601723
0.603492
0.602356
0.598304
0.591311
0.581345
0.568379
0.552398
0.533413
0.511471
0.486669
0.45916
0.429167
0.396988
0.362999
0.327655
0.291489
0.255095
0.219122
0.184251
0.151179
0.120616
0.0932501
0.0743566
0.051844
0.0336673
0.0221017
0.0140603
0.0067656
0.00314591
0.00109588
0.000173219
1e-15
0.0330189
0.0945846
0.153737
0.209613
0.261569
0.309235
0.352459
0.391312
0.425924
0.456472
0.483138
0.506138
0.525682
0.541957
0.555123
0.56531
0.572613
0.577096
0.578791
0.577707
0.573831
0.567137
0.557595
0.545177
0.529869
0.511683
0.490663
0.4669
0.440543
0.411804
0.380966
0.348391
0.314512
0.279836
0.244931
0.210418
0.17695
0.145195
0.115835
0.0895595
0.0711724
0.0500164
0.032491
0.0213201
0.0134995
0.00639783
0.00297365
0.00100348
0.000167603
1.01668e-06
0.0312846
0.0898769
0.146123
0.199168
0.248402
0.293492
0.334346
0.37103
0.403692
0.432482
0.457608
0.479281
0.497701
0.513048
0.52547
0.535088
0.541989
0.546232
0.547844
0.546832
0.543183
0.536871
0.527866
0.516142
0.501686
0.484507
0.464648
0.442195
0.417287
0.390123
0.360972
0.330172
0.29813
0.265323
0.232287
0.199605
0.167896
0.137795
0.109944
0.0849075
0.0675891
0.0477613
0.0310509
0.0204408
0.0128935
0.00600322
0.00277146
0.000876713
0.000184461
1.3883e-05
0.0292442
0.0842929
0.137075
0.186756
0.232766
0.274813
0.312889
0.347037
0.377391
0.404133
0.427469
0.447601
0.46472
0.478991
0.490552
0.499511
0.505949
0.509916
0.511438
0.510516
0.507138
0.501279
0.49291
0.482007
0.468556
0.452566
0.434076
0.413167
0.389966
0.36466
0.337495
0.308784
0.278906
0.248301
0.217467
0.186945
0.157313
0.129171
0.103143
0.0798699
0.0628948
0.0448323
0.0291855
0.0191718
0.0120888
0.0055794
0.00259444
0.000850803
0.000167928
1.59467e-05
0.0269585
0.0779771
0.12682
0.172683
0.215048
0.2537
0.288616
0.31991
0.34769
0.372153
0.393498
0.411921
0.427595
0.440673
0.451278
0.459509
0.465433
0.469097
0.470519
0.469702
0.46663
0.461281
0.453627
0.443646
0.431325
0.416672
0.399722
0.380548
0.359267
0.336048
0.311115
0.284755
0.25731
0.229184
0.200829
0.172742
0.145449
0.119489
0.0954292
0.0737822
0.0581852
0.0412725
0.0266629
0.0174634
0.0111052
0.00517317
0.00224686
0.000801149
0.00014572
6.81811e-06
0.0244928
0.0710919
0.115615
0.1573
0.195689
0.230651
0.262174
0.29036
0.315365
0.337379
0.356592
0.373183
0.387311
0.399111
0.408693
0.416141
0.421516
0.424853
0.42617
0.425465
0.422724
0.417926
0.411045
0.40206
0.390961
0.377753
0.362468
0.345172
0.325968
0.305009
0.282494
0.258679
0.233873
0.208435
0.182775
0.157341
0.132612
0.109085
0.0872626
0.0677095
0.0530689
0.0378414
0.0241942
0.0156225
0.0099885
0.00548525
0.00233143
0.000784055
0.000144013
6.73388e-06
0.0219143
0.0638125
0.103743
0.141001
0.17521
0.206259
0.234209
0.259156
0.281271
0.300737
0.317735
0.332424
0.344946
0.355419
0.363936
0.37057
0.37537
0.378365
0.37957
0.37898
0.376583
0.372358
0.366284
0.358341
0.348518
0.336822
0.32328
0.30795
0.290923
0.272332
0.252353
0.231209
0.209173
0.186562
0.163736
0.141095
0.119071
0.0981158
0.0786993
0.0612335
0.0491088
0.0351508
0.0224056
0.0142891
0.00899481
0.00503284
0.00221841
0.000693748
0.000115743
3.8357e-06
0.019289
0.0563206
0.0915005
0.124189
0.154107
0.181174
0.205468
0.227124
0.246312
0.263205
0.277965
0.290735
0.301635
0.310766
0.318205
0.324011
0.328225
0.33087
0.331957
0.33148
0.329427
0.325781
0.320522
0.313633
0.305106
0.294945
0.283174
0.269842
0.255029
0.238847
0.22145
0.20303
0.18382
0.164096
0.144169
0.124388
0.105139
0.0868452
0.0699687
0.0550236
0.0436415
0.0327223
0.0211986
0.0134132
0.00825018
0.00454989
0.00202006
0.000623216
0.000103429
3.29778e-06
0.0166793
0.0487998
0.0791945
0.107305
0.132914
0.156015
0.176693
0.195102
0.211409
0.225773
0.238335
0.249218
0.258522
0.266329
0.272702
0.277688
0.281318
0.283612
0.284575
0.284203
0.282485
0.279405
0.274947
0.269096
0.261845
0.253198
0.243175
0.231819
0.219195
0.205399
0.19056
0.17484
0.158435
0.141579
0.124535
0.107599
0.091094
0.0753754
0.0608528
0.0479551
0.0363926
0.0258215
0.0169595
0.0105427
0.00623781
0.00317067
0.00129793
0.000383891
5.05382e-05
1.6271e-06
0.014143
0.0414276
0.0671214
0.0907567
0.112178
0.131429
0.148623
0.163916
0.177463
0.189406
0.199865
0.20894
0.216712
0.223245
0.22859
0.232781
0.235844
0.237791
0.238627
0.238348
0.236944
0.234402
0.230709
0.225851
0.219824
0.21263
0.204288
0.19483
0.184313
0.172815
0.160442
0.147327
0.133634
0.119552
0.105302
0.0911261
0.0772881
0.0640614
0.0517402
0.0406677
0.030892
0.0220134
0.0147552
0.00930915
0.00535265
0.00270467
0.00111359
0.000315428
4.5442e-05
1.52701e-06
0.0117315
0.0343701
0.055561
0.07493
0.0923895
0.108016
0.121944
0.134327
0.145303
0.15499
0.163488
0.170875
0.177213
0.182551
0.186927
0.190367
0.192889
0.194503
0.195212
0.195012
0.193895
0.191849
0.188865
0.184932
0.180046
0.17421
0.167438
0.159758
0.151213
0.141869
0.131809
0.121141
0.109995
0.0985257
0.0869079
0.0753385
0.0640298
0.0531942
0.0430316
0.0337869
0.0255988
0.0184098
0.0124612
0.00787388
0.00452592
0.00227102
0.000928755
0.000266682
3.88482e-05
1.31054e-06
0.00948985
0.0277774
0.0447696
0.0601809
0.0739924
0.0863062
0.0972652
0.107008
0.115653
0.123297
0.130015
0.135865
0.140895
0.145139
0.148625
0.151372
0.153393
0.154695
0.155279
0.155142
0.154278
0.152677
0.150333
0.147237
0.143386
0.138783
0.133439
0.127376
0.120628
0.113246
0.105296
0.0968623
0.0880463
0.0789676
0.0697628
0.0605842
0.0515977
0.0429725
0.0348577
0.0274137
0.0207866
0.0150273
0.0102402
0.00649274
0.00373806
0.00187606
0.000765939
0.000220467
3.2206e-05
1.08754e-06
0.00745594
0.0217772
0.0349629
0.0468151
0.0573701
0.0667492
0.0750892
0.0825096
0.0891052
0.0949486
0.100095
0.104586
0.108454
0.111723
0.114414
0.116539
0.118107
0.119123
0.119588
0.119499
0.118852
0.11764
0.115856
0.113496
0.110557
0.107042
0.102958
0.0983234
0.0931641
0.0875184
0.0814367
0.0749827
0.0682335
0.0612796
0.0542233
0.0471781
0.0402673
0.0336203
0.0273535
0.0215784
0.0164079
0.0119155
0.00816621
0.00520127
0.00300481
0.00151214
0.000618045
0.000178133
2.60464e-05
8.79697e-07
0.00565898
0.016469
0.0263088
0.0350642
0.0428116
0.0496784
0.0557854
0.0612278
0.0660762
0.0703817
0.0741815
0.0775039
0.0803702
0.082797
0.0847972
0.0863798
0.0875512
0.0883144
0.0886699
0.0886158
0.0881486
0.0872637
0.0859567
0.0842239
0.0820636
0.0794777
0.0764727
0.073061
0.0692625
0.0651051
0.0606258
0.0558711
0.0508975
0.0457708
0.0405656
0.0353637
0.0302525
0.0253251
0.0206695
0.0163659
0.012494
0.0091174
0.00628455
0.0040253
0.00233709
0.00118123
0.000484288
0.00013987
2.04706e-05
6.914e-07
0.00411925
0.0119229
0.0189244
0.0250849
0.0305046
0.0353022
0.0395749
0.0433921
0.0468017
0.0498368
0.0525209
0.0548717
0.0569028
0.0586247
0.0600457
0.061172
0.0620076
0.0625546
0.0628134
0.0627826
0.0624598
0.061842
0.0609261
0.0597095
0.0581914
0.056373
0.0542592
0.0518588
0.0491858
0.0462598
0.043107
0.03976
0.036258
0.0326472
0.0289795
0.0253116
0.0217034
0.0182182
0.0149179
0.0118589
0.00909542
0.00667371
0.0046295
0.00298543
0.00174496
0.000887406
0.000365629
0.000105949
1.55284e-05
5.24513e-07
0.00284687
0.00817455
0.0128695
0.0169517
0.0205274
0.0236946
0.0265229
0.0290578
0.0313284
0.0333541
0.0351488
0.0367226
0.0380839
0.0392392
0.0401936
0.040951
0.041514
0.0418841
0.0420615
0.0420453
0.0418339
0.0414255
0.040818
0.0400098
0.0390004
0.0377909
0.0363843
0.0347868
0.0330076
0.0310601
0.0289614
0.0267333
0.0244019
0.0219975
0.0195544
0.0171102
0.0147038
0.0123762
0.0101678
0.00811609
0.006256
0.00461811
0.00322666
0.00209781
0.00123681
0.00063436
0.000263293
7.66876e-05
1.12656e-05
3.80609e-07
0.00184071
0.00522389
0.00814031
0.0106476
0.0128399
0.0147873
0.0165332
0.0181033
0.0195133
0.0207736
0.0218915
0.0228728
0.0237222
0.0244436
0.0250399
0.0255137
0.0258664
0.026099
0.0262117
0.0262039
0.0260746
0.0258229
0.0254473
0.0249471
0.0243219
0.0235724
0.0227007
0.0217104
0.0206075
0.0194002
0.0180992
0.016718
0.0152727
0.0137822
0.0122674
0.0107514
0.00925817
0.0078125
0.00643891
0.00516042
0.00399808
0.0029703
0.00209189
0.00137312
0.000818472
0.000424697
0.00017819
5.23208e-05
7.71553e-06
2.60797e-07
0.00108863
0.00303601
0.00467168
0.006066
0.00728775
0.00837844
0.00936057
0.0102465
0.0110437
0.0117571
0.0123903
0.0129465
0.0134281
0.0138373
0.0141757
0.0144448
0.0146453
0.0147779
0.0148427
0.0148392
0.0147672
0.0146259
0.0144146
0.0141329
0.0137806
0.0133582
0.0128667
0.0123084
0.0116866
0.0110059
0.0102724
0.00949382
0.00867914
0.00783893
0.006985
0.00613026
0.00528819
0.0044725
0.00369679
0.00297386
0.0023153
0.00173115
0.00122942
0.000815701
0.000492744
0.000259685
0.000110718
3.29411e-05
4.89039e-06
1.65473e-07
0.000567376
0.00154112
0.00233674
0.00301348
0.00361028
0.00414627
0.00463074
0.00506867
0.00546313
0.00581632
0.00612993
0.00640542
0.006644
0.00684673
0.00701446
0.00714786
0.00724738
0.0073133
0.00734564
0.00734431
0.00730906
0.00723957
0.00713553
0.0069967
0.006823
0.00661466
0.00637226
0.00609688
0.00579017
0.00545444
0.0050927
0.00470871
0.00430697
0.00389269
0.00347165
0.0030502
0.00263496
0.00223264
0.00184987
0.00149288
0.00116729
0.000877918
0.000628528
0.000421694
0.000258631
0.000139032
6.06831e-05
1.8462e-05
2.77639e-06
9.41596e-08
0.000243324
0.000635494
0.000949039
0.00121765
0.00145664
0.00167232
0.00186767
0.00204439
0.00220361
0.00234616
0.00247274
0.00258393
0.00268022
0.00276204
0.00282974
0.0028836
0.0029238
0.00295045
0.00296358
0.00296313
0.00294901
0.00292109
0.00287925
0.0028234
0.0027535
0.00266964
0.00257207
0.00246122
0.00233776
0.00220263
0.00205704
0.0019025
0.00174084
0.00157415
0.00140475
0.0012352
0.00106814
0.000906285
0.000752265
0.000608577
0.00047746
0.00036081
0.000260099
0.000176291
0.000109785
6.03766e-05
2.72104e-05
8.59755e-06
1.32889e-06
4.53455e-08
7.43313e-05
0.000184288
0.000272016
0.000348227
0.000416462
0.000478149
0.000534033
0.000584576
0.0006301
0.000670852
0.000707031
0.000738806
0.000766323
0.000789704
0.000809051
0.000824442
0.000835933
0.000843553
0.000847311
0.000847192
0.000843168
0.000835202
0.000823259
0.000807312
0.000787353
0.000763408
0.000735546
0.000703891
0.000668636
0.000630049
0.000588478
0.000544357
0.000498205
0.00045062
0.000402271
0.00035388
0.000306206
0.000260019
0.000216071
0.000175069
0.00013765
0.00010435
7.55828e-05
5.16125e-05
3.25378e-05
1.82739e-05
8.54125e-06
2.85976e-06
4.70253e-07
1.63537e-08
1.14115e-05
2.70004e-05
3.97016e-05
5.08188e-05
6.07766e-05
6.97735e-05
7.792e-05
8.52852e-05
9.19174e-05
9.78531e-05
0.000103122
0.000107749
0.000111755
0.000115159
0.000117976
0.000120217
0.000121889
0.000122998
0.000123545
0.000123527
0.00012294
0.000121779
0.000120038
0.000117714
0.000114804
0.000111314
0.000107252
0.000102638
9.74984e-05
9.18732e-05
8.58134e-05
7.93821e-05
7.26551e-05
6.57198e-05
5.86737e-05
5.16224e-05
4.46765e-05
3.79481e-05
3.15467e-05
2.55753e-05
2.01266e-05
1.52782e-05
1.10898e-05
7.59935e-06
4.82031e-06
2.73936e-06
1.31332e-06
4.66298e-07
8.64259e-08
3.25556e-09
3.84512e-07
9.14437e-07
1.34446e-06
1.72011e-06
2.05638e-06
2.36011e-06
2.63508e-06
2.88365e-06
3.10745e-06
3.30773e-06
3.48549e-06
3.64158e-06
3.77673e-06
3.89155e-06
3.98655e-06
4.06212e-06
4.11852e-06
4.1559e-06
4.17431e-06
4.17367e-06
4.1538e-06
4.11454e-06
4.05571e-06
3.97716e-06
3.87885e-06
3.76089e-06
3.62362e-06
3.46766e-06
3.29395e-06
3.10382e-06
2.899e-06
2.68164e-06
2.45427e-06
2.21987e-06
1.98173e-06
1.74344e-06
1.50874e-06
1.28141e-06
1.06517e-06
8.63498e-07
6.79515e-07
5.15847e-07
3.74501e-07
2.56743e-07
1.63006e-07
9.28305e-08
4.47548e-08
1.6168e-08
3.22322e-09
2.06537e-10
2.1743e-07
4.3367e-08
1e-15
1.52565e-09
1e-15
1e-15
5.31558e-13
1e-15
5.15745e-14
1e-15
1e-15
1.29376e-15
1e-15
4.3731e-13
8.37406e-14
1.33617e-11
1e-15
1e-15
1.28383e-08
9.79713e-08
2.70879e-07
1.85289e-06
1e-15
6.26936e-08
1e-15
1.31885e-11
1.22712e-11
1e-15
2.16662e-12
1e-15
4.83412e-15
1e-15
1e-15
2.09785e-11
1e-15
1.70501e-09
1e-15
1.86194e-09
1.01727e-06
8.12606e-06
1.34202e-07
4.55436e-07
1e-15
7.78534e-09
1e-15
1e-15
4.17084e-12
1e-15
4.29971e-13
1e-15
1.65197e-15
1e-15
1e-15
3.90518e-12
1e-15
4.36136e-10
1e-15
7.1673e-10
2.1884e-07
1.9078e-06
1.92682e-10
3.00515e-09
1.5032e-08
4.13582e-08
8.49445e-08
1.47174e-07
2.27961e-07
3.25917e-07
4.38571e-07
5.62612e-07
6.94165e-07
8.29086e-07
9.63246e-07
1.09278e-06
1.2143e-06
1.32503e-06
1.42293e-06
1.5067e-06
1.57578e-06
1.63029e-06
1.67093e-06
1.69887e-06
1.71563e-06
1.72296e-06
1.72273e-06
1.71681e-06
1.70701e-06
1.69502e-06
1.68239e-06
1.67046e-06
1.66044e-06
1.65337e-06
1.65017e-06
1.6517e-06
1.65871e-06
1.67193e-06
1.69207e-06
1.71985e-06
1.75595e-06
1.80108e-06
1.85589e-06
1.92102e-06
1.99699e-06
2.08415e-06
2.18263e-06
2.29222e-06
2.41231e-06
2.54184e-06
2.67928e-06
2.82267e-06
2.96975e-06
3.11808e-06
3.26521e-06
3.40882e-06
3.54684e-06
3.67751e-06
3.79948e-06
3.91176e-06
4.0138e-06
4.10539e-06
4.1866e-06
4.25778e-06
4.31946e-06
4.37231e-06
4.41709e-06
4.45458e-06
4.48561e-06
4.51096e-06
4.53141e-06
4.54764e-06
4.5603e-06
4.56995e-06
4.57706e-06
4.58204e-06
4.58522e-06
4.58684e-06
4.58709e-06
4.5861e-06
4.58386e-06
4.5804e-06
4.57567e-06
4.56957e-06
4.56198e-06
4.55272e-06
4.54163e-06
4.5285e-06
4.51315e-06
4.49538e-06
4.47502e-06
4.45194e-06
4.42607e-06
4.39739e-06
4.36601e-06
4.33217e-06
4.29629e-06
4.25911e-06
4.22178e-06
4.1862e-06
4.15545e-06
4.13489e-06
3.03785e-09
8.06032e-08
4.33702e-07
1.21444e-06
2.50991e-06
4.36069e-06
6.76401e-06
9.6783e-06
1.30297e-05
1.67195e-05
2.06322e-05
2.46444e-05
2.86332e-05
3.24837e-05
3.60949e-05
3.93848e-05
4.22925e-05
4.47795e-05
4.68294e-05
4.84458e-05
4.96497e-05
5.04761e-05
5.09704e-05
5.11846e-05
5.11744e-05
5.09954e-05
5.07014e-05
5.03429e-05
4.99656e-05
4.96097e-05
4.93108e-05
4.90999e-05
4.90046e-05
4.90499e-05
4.92584e-05
4.96518e-05
5.02514e-05
5.1078e-05
5.21523e-05
5.34951e-05
5.51264e-05
5.70646e-05
5.93254e-05
6.19195e-05
6.48505e-05
6.81124e-05
7.16871e-05
7.5543e-05
7.96344e-05
8.39031e-05
8.82816e-05
9.26972e-05
9.70771e-05
0.000101352
0.00010546
0.000109349
0.000112979
0.000116321
0.000119358
0.000122083
0.0001245
0.000126618
0.000128454
0.000130027
0.000131359
0.000132475
0.000133399
0.000134154
0.000134762
0.000135246
0.000135623
0.00013591
0.000136122
0.00013627
0.000136365
0.000136413
0.000136421
0.000136392
0.000136325
0.000136222
0.000136082
0.0001359
0.000135674
0.000135399
0.000135068
0.000134678
0.000134221
0.000133692
0.000133086
0.000132399
0.000131629
0.000130776
0.000129842
0.000128834
0.000127767
0.00012666
0.000125548
0.000124488
0.000123572
0.000122956
1.52852e-08
4.39295e-07
2.66473e-06
7.91476e-06
1.67839e-05
2.95168e-05
4.60782e-05
6.61723e-05
8.92816e-05
0.000114718
0.00014168
0.000169312
0.000196766
0.000223246
0.00024806
0.000270641
0.000290575
0.000307599
0.000321604
0.000332619
0.000340793
0.00034637
0.000349665
0.000351041
0.000350882
0.00034957
0.00034748
0.000344957
0.000342316
0.000339831
0.000337748
0.000336277
0.000335609
0.000335914
0.000337347
0.000340057
0.00034419
0.000349889
0.000357297
0.000366557
0.000377808
0.000391179
0.000406777
0.00042468
0.000444913
0.000467438
0.000492131
0.000518773
0.000547048
0.000576552
0.000606815
0.000637333
0.0006676
0.000697137
0.000725516
0.000752377
0.000777443
0.000800514
0.000821476