/*--------------------------------*- C++ -*----------------------------------*\
| =========                 |                                                 |
| \\      /  F ield         | foam-extend: Open Source CFD                    |
|  \\    /   O peration     | Version:     4.0                                |
|   \\  /    A nd           | Web:         http://www.foam-extend.org         |
|    \\/     M anipulation  |                                                 |
\*---------------------------------------------------------------------------*/
FoamFile
{
    version     2.0;
    format      ascii;
    class       volScalarField;
    location    "0.0011";
    object      nut;
}
// * * * * * * * * * * * * * * * * * * * * * * * * * * * * * * * * * * * * * //

dimensions      [0 2 -1 0 0 0 0];

internalField   nonuniform List<scalar> 
28770
(
1.67223e-14
4.09493e-14
6.15314e-14
8.0271e-14
9.74313e-14
1.13293e-13
1.27908e-13
1.4132e-13
1.53556e-13
1.64636e-13
1.74581e-13
1.83409e-13
1.91141e-13
1.97799e-13
2.03403e-13
2.07971e-13
2.1152e-13
2.14061e-13
2.15605e-13
2.16155e-13
2.15714e-13
2.14278e-13
2.11844e-13
2.0841e-13
2.03973e-13
1.98539e-13
1.92117e-13
1.8473e-13
1.76411e-13
1.6721e-13
1.57196e-13
1.46456e-13
1.35098e-13
1.23252e-13
1.11066e-13
9.8708e-14
8.63598e-14
7.42148e-14
6.24718e-14
5.13296e-14
4.0979e-14
3.15948e-14
2.33267e-14
1.62904e-14
1.05592e-14
6.15672e-15
3.04998e-15
1.1396e-15
2.38923e-16
1.66995e-17
3.50986e-12
7.20084e-12
1.0647e-11
1.38592e-11
1.68141e-11
1.95465e-11
2.20649e-11
2.43763e-11
2.64849e-11
2.83944e-11
3.01081e-11
3.16294e-11
3.29618e-11
3.4109e-11
3.50745e-11
3.58614e-11
3.64726e-11
3.69101e-11
3.71755e-11
3.72697e-11
3.71928e-11
3.69444e-11
3.65238e-11
3.59307e-11
3.51648e-11
3.42267e-11
3.31183e-11
3.18434e-11
3.04079e-11
2.88203e-11
2.70925e-11
2.52395e-11
2.32801e-11
2.12366e-11
1.91346e-11
1.70031e-11
1.48735e-11
1.27791e-11
1.07542e-11
8.83316e-12
7.04885e-12
5.4314e-12
4.00664e-12
2.79446e-12
1.80742e-12
1.04934e-12
5.13808e-13
1.82194e-13
2.68048e-14
2.63522e-16
9.2619e-11
1.56026e-10
2.19488e-10
2.82039e-10
3.40946e-10
3.95803e-10
4.46498e-10
4.93069e-10
5.35572e-10
5.74065e-10
6.08612e-10
6.39279e-10
6.66135e-10
6.89253e-10
7.08703e-10
7.24548e-10
7.36843e-10
7.45632e-10
7.50944e-10
7.52795e-10
7.51189e-10
7.46116e-10
7.37562e-10
7.25519e-10
7.09981e-10
6.90962e-10
6.685e-10
6.42669e-10
6.13591e-10
5.81441e-10
5.46457e-10
5.08947e-10
4.69289e-10
4.27937e-10
3.85411e-10
3.42297e-10
2.99231e-10
2.56888e-10
2.15963e-10
1.77149e-10
1.41111e-10
1.08457e-10
7.97029e-11
5.52414e-11
3.5304e-11
1.99328e-11
9.00104e-12
2.45511e-12
1.93372e-13
1.25776e-15
9.15449e-10
1.28545e-09
1.69013e-09
2.11564e-09
2.53238e-09
2.92795e-09
3.29681e-09
3.63707e-09
3.9482e-09
4.23023e-09
4.48344e-09
4.70823e-09
4.90507e-09
5.07447e-09
5.21692e-09
5.33288e-09
5.42275e-09
5.48683e-09
5.52533e-09
5.53836e-09
5.52593e-09
5.48796e-09
5.42434e-09
5.33501e-09
5.21991e-09
5.07915e-09
4.913e-09
4.72201e-09
4.50709e-09
4.26953e-09
4.0111e-09
3.73406e-09
3.44125e-09
3.13598e-09
2.82214e-09
2.50403e-09
2.18636e-09
1.8741e-09
1.57238e-09
1.28627e-09
1.02064e-09
7.79875e-10
5.67657e-10
3.86685e-10
2.38605e-10
1.24581e-10
4.71767e-11
9.36854e-12
5.52552e-13
3.35389e-15
5.14547e-09
6.34579e-09
7.8193e-09
9.46695e-09
1.11515e-08
1.27944e-08
1.43512e-08
1.58002e-08
1.71316e-08
1.83418e-08
1.94298e-08
2.03963e-08
2.12429e-08
2.19714e-08
2.25837e-08
2.30816e-08
2.34669e-08
2.37408e-08
2.3904e-08
2.3957e-08
2.38997e-08
2.37318e-08
2.34528e-08
2.30622e-08
2.25599e-08
2.19463e-08
2.12224e-08
2.03908e-08
1.94553e-08
1.84216e-08
1.72973e-08
1.60924e-08
1.4819e-08
1.34918e-08
1.21275e-08
1.07449e-08
9.36417e-09
8.00692e-09
6.69511e-09
5.45048e-09
4.29365e-09
3.24321e-09
2.31499e-09
1.52241e-09
8.79577e-10
4.07428e-10
1.28273e-10
2.1068e-11
1.13034e-12
6.74157e-15
2.00357e-08
2.27907e-08
2.66334e-08
3.11782e-08
3.60139e-08
4.08695e-08
4.55646e-08
4.99926e-08
5.40954e-08
5.78434e-08
6.12234e-08
6.42314e-08
6.68685e-08
6.91383e-08
7.10456e-08
7.25955e-08
7.37923e-08
7.46395e-08
7.51394e-08
7.52927e-08
7.50993e-08
7.45576e-08
7.36657e-08
7.24221e-08
7.08261e-08
6.88786e-08
6.65834e-08
6.39478e-08
6.0984e-08
5.77099e-08
5.41497e-08
5.03346e-08
4.63031e-08
4.2101e-08
3.7781e-08
3.34017e-08
2.90268e-08
2.4723e-08
2.05587e-08
1.66015e-08
1.29165e-08
9.56551e-09
6.61021e-09
4.12067e-09
2.1869e-09
8.99534e-10
2.49297e-10
3.74765e-11
1.94396e-12
1.15125e-14
6.05554e-08
6.5756e-08
7.38161e-08
8.38528e-08
9.4914e-08
1.0633e-07
1.17604e-07
1.28402e-07
1.38517e-07
1.47826e-07
1.56263e-07
1.63795e-07
1.7041e-07
1.7611e-07
1.809e-07
1.84789e-07
1.87785e-07
1.89896e-07
1.91126e-07
1.91475e-07
1.90941e-07
1.8952e-07
1.87205e-07
1.83994e-07
1.79881e-07
1.7487e-07
1.68968e-07
1.62195e-07
1.54582e-07
1.46172e-07
1.37027e-07
1.27227e-07
1.16869e-07
1.06069e-07
9.49599e-08
8.36895e-08
7.24184e-08
6.13156e-08
5.05556e-08
4.03164e-08
3.0782e-08
2.21518e-08
1.46588e-08
8.58199e-09
4.1947e-09
1.57741e-09
4.06285e-10
5.86323e-11
2.99633e-12
1.76773e-14
1.52712e-07
1.61589e-07
1.76045e-07
1.95011e-07
2.16568e-07
2.39365e-07
2.62332e-07
2.84683e-07
3.05876e-07
3.25558e-07
3.4351e-07
3.59609e-07
3.73791e-07
3.86031e-07
3.96323e-07
4.04674e-07
4.11093e-07
4.15588e-07
4.18162e-07
4.18814e-07
4.17535e-07
4.14312e-07
4.09128e-07
4.01971e-07
3.92832e-07
3.81713e-07
3.6863e-07
3.53621e-07
3.36753e-07
3.1812e-07
2.97855e-07
2.76129e-07
2.53153e-07
2.29177e-07
2.04491e-07
1.79416e-07
1.54306e-07
1.2954e-07
1.05525e-07
8.27068e-08
6.15937e-08
4.27869e-08
2.69858e-08
1.48747e-08
6.80611e-09
2.41292e-09
5.96891e-10
8.43835e-11
4.27696e-12
2.51595e-14
3.36253e-07
3.50297e-07
3.73943e-07
4.05994e-07
4.43332e-07
4.83639e-07
5.24977e-07
5.65817e-07
6.05021e-07
6.41784e-07
6.75568e-07
7.06031e-07
7.32971e-07
7.56276e-07
7.75893e-07
7.918e-07
8.03992e-07
8.12465e-07
8.17212e-07
8.18216e-07
8.1545e-07
8.08877e-07
7.98461e-07
7.84167e-07
7.6597e-07
7.43866e-07
7.17881e-07
6.88082e-07
6.5459e-07
6.17585e-07
5.77319e-07
5.34119e-07
4.88392e-07
4.40623e-07
3.91381e-07
3.41307e-07
2.91127e-07
2.4165e-07
1.93805e-07
1.48676e-07
1.07559e-07
7.19486e-08
4.33375e-08
2.27128e-08
9.90891e-09
3.38514e-09
8.18354e-10
1.14348e-10
5.76379e-12
3.38188e-14
6.66534e-07
6.88064e-07
7.24261e-07
7.73958e-07
8.32998e-07
8.97846e-07
9.65383e-07
1.03302e-06
1.0987e-06
1.1609e-06
1.21851e-06
1.27076e-06
1.31718e-06
1.35745e-06
1.39139e-06
1.41889e-06
1.43989e-06
1.45434e-06
1.46219e-06
1.46338e-06
1.45785e-06
1.44549e-06
1.42624e-06
1.39999e-06
1.36669e-06
1.32632e-06
1.2789e-06
1.22453e-06
1.16342e-06
1.09586e-06
1.02229e-06
9.43294e-07
8.59587e-07
7.72054e-07
6.81749e-07
5.89906e-07
4.97973e-07
4.07658e-07
3.21002e-07
2.40439e-07
1.68775e-07
1.08893e-07
6.30332e-08
3.17736e-08
1.34119e-08
4.47505e-09
1.06675e-09
1.47961e-10
7.42873e-12
4.35233e-14
1.21401e-06
1.24726e-06
1.30068e-06
1.37207e-06
1.45877e-06
1.55545e-06
1.65748e-06
1.76088e-06
1.86236e-06
1.95933e-06
2.04982e-06
2.13242e-06
2.20612e-06
2.27025e-06
2.32436e-06
2.36816e-06
2.40144e-06
2.42402e-06
2.43577e-06
2.43653e-06
2.42611e-06
2.40433e-06
2.37099e-06
2.32592e-06
2.26896e-06
2.20003e-06
2.11914e-06
2.02641e-06
1.92215e-06
1.80682e-06
1.68114e-06
1.54606e-06
1.40283e-06
1.25299e-06
1.09846e-06
9.41581e-07
7.85213e-07
6.32815e-07
4.88537e-07
3.57142e-07
2.43613e-07
1.52255e-07
8.53269e-08
4.17813e-08
1.72403e-08
5.66394e-09
1.33778e-09
1.84652e-10
9.24302e-12
5.42431e-14
2.0596e-06
2.11242e-06
2.18798e-06
2.28647e-06
2.40666e-06
2.54208e-06
2.6865e-06
2.83432e-06
2.98074e-06
3.1218e-06
3.25438e-06
3.37608e-06
3.48515e-06
3.58032e-06
3.66068e-06
3.72558e-06
3.77453e-06
3.80714e-06
3.82304e-06
3.82187e-06
3.80326e-06
3.7668e-06
3.7121e-06
3.6388e-06
3.54659e-06
3.43524e-06
3.30469e-06
3.15507e-06
2.98679e-06
2.80057e-06
2.59751e-06
2.37916e-06
2.14763e-06
1.90563e-06
1.65663e-06
1.40499e-06
1.15611e-06
9.16513e-07
6.93723e-07
4.95697e-07
3.29696e-07
2.00658e-07
1.09591e-07
5.25128e-08
2.13364e-08
6.94099e-09
1.62965e-09
2.2424e-10
1.11959e-11
6.59486e-14
3.28559e-06
3.37332e-06
3.47857e-06
3.6108e-06
3.76945e-06
3.94938e-06
4.14277e-06
4.34229e-06
4.54144e-06
4.73465e-06
4.91737e-06
5.08596e-06
5.23763e-06
5.37024e-06
5.4822e-06
5.57229e-06
5.63954e-06
5.68314e-06
5.70235e-06
5.69643e-06
5.66465e-06
5.60626e-06
5.5205e-06
5.40668e-06
5.26419e-06
5.09255e-06
4.89155e-06
4.66128e-06
4.40227e-06
4.11559e-06
3.80297e-06
3.46696e-06
3.11109e-06
2.74009e-06
2.36009e-06
1.97891e-06
1.60608e-06
1.25276e-06
9.30953e-07
6.52077e-07
4.24804e-07
2.5308e-07
1.3537e-07
6.37927e-08
2.56776e-08
8.31689e-09
1.94671e-09
2.67444e-10
1.32974e-11
7.91742e-14
4.9613e-06
5.11228e-06
5.25959e-06
5.43545e-06
5.63624e-06
5.86462e-06
6.11138e-06
6.36746e-06
6.62458e-06
6.87546e-06
7.11391e-06
7.33484e-06
7.53418e-06
7.70867e-06
7.85577e-06
7.97342e-06
8.05994e-06
8.11386e-06
8.1338e-06
8.11846e-06
8.06651e-06
7.97658e-06
7.84738e-06
7.67765e-06
7.46628e-06
7.2124e-06
6.9155e-06
6.57561e-06
6.19344e-06
5.7706e-06
5.30986e-06
4.81539e-06
4.29312e-06
3.75108e-06
3.19969e-06
2.65203e-06
2.12363e-06
1.63165e-06
1.19316e-06
8.22381e-07
5.27515e-07
3.08954e-07
1.62364e-07
7.55855e-08
3.03456e-08
9.86502e-09
2.30848e-09
3.16158e-10
1.54827e-11
8.97065e-14
7.12592e-06
7.38745e-06
7.59589e-06
7.8262e-06
8.07702e-06
8.35689e-06
8.65903e-06
8.9734e-06
9.29027e-06
9.6007e-06
9.89686e-06
1.01721e-05
1.04208e-05
1.06385e-05
1.08214e-05
1.09664e-05
1.10706e-05
1.11319e-05
1.11477e-05
1.11161e-05
1.10346e-05
1.09011e-05
1.07134e-05
1.04695e-05
1.01673e-05
9.8056e-06
9.38333e-06
8.90045e-06
8.358e-06
7.75854e-06
7.10648e-06
6.40864e-06
5.67469e-06
4.91767e-06
4.15429e-06
3.40484e-06
2.69242e-06
2.04111e-06
1.47287e-06
1.0035e-06
6.3794e-07
3.67389e-07
1.9003e-07
8.79014e-08
3.57234e-08
1.18575e-08
2.79024e-09
3.8219e-10
1.75406e-11
1.09464e-13
9.77219e-06
1.02149e-05
1.05132e-05
1.08146e-05
1.11282e-05
1.14609e-05
1.18179e-05
1.21889e-05
1.25634e-05
1.29311e-05
1.32827e-05
1.36098e-05
1.39056e-05
1.4164e-05
1.43797e-05
1.45483e-05
1.46658e-05
1.47286e-05
1.47331e-05
1.46758e-05
1.45533e-05
1.4362e-05
1.40987e-05
1.37599e-05
1.33428e-05
1.28452e-05
1.22655e-05
1.16038e-05
1.08616e-05
1.0043e-05
9.15505e-06
8.20851e-06
7.21852e-06
6.2051e-06
5.1932e-06
4.21202e-06
3.29318e-06
2.46766e-06
1.76179e-06
1.19323e-06
8.86029e-07
4.79205e-07
2.47633e-07
1.18081e-07
5.10253e-08
1.85442e-08
4.9757e-09
7.99681e-10
5.69938e-11
3.05033e-13
1.28365e-05
1.35533e-05
1.39806e-05
1.43753e-05
1.47693e-05
1.51601e-05
1.55695e-05
1.59928e-05
1.64192e-05
1.68377e-05
1.7238e-05
1.76104e-05
1.79466e-05
1.82389e-05
1.84808e-05
1.86661e-05
1.87893e-05
1.88452e-05
1.88287e-05
1.87346e-05
1.85578e-05
1.82932e-05
1.79359e-05
1.74809e-05
1.69241e-05
1.62622e-05
1.54932e-05
1.46172e-05
1.36368e-05
1.25586e-05
1.13932e-05
1.0157e-05
8.8724e-06
7.56836e-06
6.27966e-06
5.04528e-06
3.90528e-06
2.89633e-06
2.04655e-06
1.36943e-06
9.94529e-07
5.3253e-07
2.68255e-07
1.28562e-07
5.75888e-08
2.14428e-08
5.77267e-09
9.33686e-10
5.71622e-11
3.01848e-13
1.62011e-05
1.72988e-05
1.79018e-05
1.84171e-05
1.89049e-05
1.93729e-05
1.9833e-05
2.03026e-05
2.07726e-05
2.12325e-05
2.16713e-05
2.20787e-05
2.24449e-05
2.27612e-05
2.30192e-05
2.32114e-05
2.33303e-05
2.33689e-05
2.33203e-05
2.31772e-05
2.29325e-05
2.25792e-05
2.21101e-05
2.15188e-05
2.07994e-05
1.99474e-05
1.89605e-05
1.7839e-05
1.65875e-05
1.52156e-05
1.37392e-05
1.21817e-05
1.05746e-05
8.95696e-06
7.37454e-06
5.8762e-06
4.50943e-06
3.31485e-06
2.32053e-06
1.53625e-06
1.09572e-06
5.77544e-07
2.88614e-07
1.40431e-07
6.44015e-08
2.38917e-08
6.33455e-09
1.04138e-09
6.70556e-11
4.15544e-13
1.97073e-05
2.12903e-05
2.21177e-05
2.27827e-05
2.3382e-05
2.39439e-05
2.44612e-05
2.49709e-05
2.54753e-05
2.59652e-05
2.64305e-05
2.68602e-05
2.72441e-05
2.75721e-05
2.78345e-05
2.8022e-05
2.81255e-05
2.81358e-05
2.80438e-05
2.784e-05
2.75151e-05
2.70595e-05
2.6464e-05
2.57199e-05
2.48197e-05
2.37578e-05
2.25314e-05
2.11419e-05
1.95961e-05
1.79078e-05
1.60994e-05
1.42026e-05
1.22589e-05
1.0319e-05
8.43922e-06
6.67791e-06
5.08874e-06
3.71443e-06
2.58162e-06
1.69663e-06
1.20505e-06
6.32814e-07
3.18708e-07
1.57611e-07
7.27352e-08
2.25432e-08
5.74834e-09
9.91801e-10
6.61287e-11
3.57378e-13
2.3176e-05
2.53274e-05
2.64206e-05
2.7261e-05
2.79874e-05
2.86479e-05
2.92439e-05
2.97908e-05
3.03209e-05
3.08298e-05
3.1309e-05
3.17483e-05
3.2137e-05
3.24642e-05
3.2719e-05
3.28907e-05
3.29681e-05
3.294e-05
3.2795e-05
3.25213e-05
3.21068e-05
3.15397e-05
3.08081e-05
2.99013e-05
2.881e-05
2.75274e-05
2.60508e-05
2.43828e-05
2.25333e-05
2.05211e-05
1.83756e-05
1.61379e-05
1.38603e-05
1.16044e-05
9.43733e-06
7.42547e-06
5.62741e-06
4.08687e-06
2.82801e-06
1.8527e-06
1.31477e-06
6.98042e-07
3.55112e-07
1.7727e-07
8.14953e-08
2.51793e-08
6.91648e-09
1.12169e-09
8.25712e-11
5.80328e-13
2.64303e-05
2.91935e-05
3.05774e-05
3.16092e-05
3.24724e-05
3.32344e-05
3.39182e-05
3.45133e-05
3.50611e-05
3.55793e-05
3.60614e-05
3.64989e-05
3.68811e-05
3.71967e-05
3.74339e-05
3.75804e-05
3.76234e-05
3.75497e-05
3.73456e-05
3.69968e-05
3.64887e-05
3.58068e-05
3.4937e-05
3.38663e-05
3.25837e-05
3.10816e-05
2.93574e-05
2.74155e-05
2.5269e-05
2.29425e-05
2.04728e-05
1.79104e-05
1.53179e-05
1.27677e-05
1.03361e-05
8.09616e-06
6.11006e-06
4.42155e-06
3.05174e-06
1.99707e-06
1.41381e-06
7.59559e-07
3.88004e-07
1.94253e-07
8.92427e-08
2.70716e-08
7.43349e-09
1.16944e-09
1.02779e-10
6.05195e-13
2.93123e-05
3.26796e-05
3.43551e-05
3.55792e-05
3.65789e-05
3.74404e-05
3.81996e-05
3.88589e-05
3.94271e-05
3.99476e-05
4.04247e-05
4.08517e-05
4.12192e-05
4.15156e-05
4.17285e-05
4.18442e-05
4.18486e-05
4.17264e-05
4.14618e-05
4.10383e-05
4.04389e-05
3.96467e-05
3.86453e-05
3.74197e-05
3.59574e-05
3.42502e-05
3.2296e-05
3.01008e-05
2.76817e-05
2.50683e-05
2.2305e-05
1.9451e-05
1.65786e-05
1.37693e-05
1.1107e-05
8.67013e-06
6.52291e-06
4.70832e-06
3.24423e-06
2.12222e-06
1.4949e-06
8.09649e-07
4.1369e-07
2.06888e-07
9.52452e-08
2.89457e-08
8.18833e-09
1.40244e-09
1.35577e-10
8.19474e-13
3.16932e-05
3.56026e-05
3.75429e-05
3.89421e-05
4.00659e-05
4.10169e-05
4.18406e-05
4.25553e-05
4.31557e-05
4.36753e-05
4.41423e-05
4.45542e-05
4.49028e-05
4.51767e-05
4.53628e-05
4.54467e-05
4.54128e-05
4.52444e-05
4.49238e-05
4.44325e-05
4.37513e-05
4.28614e-05
4.17443e-05
4.03835e-05
3.87652e-05
3.68808e-05
3.47286e-05
3.23168e-05
2.96654e-05
2.68093e-05
2.37994e-05
2.07022e-05
1.75982e-05
1.45762e-05
1.17263e-05
9.13051e-06
6.85409e-06
4.93863e-06
3.39897e-06
2.22268e-06
1.56045e-06
8.50107e-07
4.34612e-07
2.17425e-07
1.00464e-07
3.18221e-08
8.77496e-09
1.51072e-09
1.69935e-10
3.47354e-12
3.34769e-05
3.78167e-05
3.99689e-05
4.1508e-05
4.27307e-05
4.37524e-05
4.46259e-05
4.53767e-05
4.60103e-05
4.65345e-05
4.69894e-05
4.73851e-05
4.77148e-05
4.79672e-05
4.81289e-05
4.81847e-05
4.8118e-05
4.7911e-05
4.75444e-05
4.69982e-05
4.62517e-05
4.52844e-05
4.40764e-05
4.26098e-05
4.08701e-05
3.88483e-05
3.65435e-05
3.39652e-05
3.11364e-05
2.80958e-05
2.48994e-05
2.16197e-05
1.8343e-05
1.51636e-05
1.21758e-05
9.4641e-06
7.09413e-06
5.10607e-06
3.512e-06
2.29626e-06
1.61042e-06
8.84197e-07
4.53315e-07
2.2766e-07
1.05929e-07
3.46114e-08
9.67132e-09
1.51105e-09
1.31536e-10
3.91123e-12
3.46102e-05
3.92354e-05
4.15287e-05
4.31602e-05
4.44473e-05
4.55143e-05
4.64189e-05
4.71902e-05
4.78408e-05
4.83734e-05
4.88192e-05
4.92013e-05
4.95159e-05
4.97518e-05
4.98953e-05
4.99307e-05
4.98408e-05
4.96069e-05
4.92088e-05
4.86256e-05
4.78356e-05
4.6817e-05
4.55491e-05
4.40132e-05
4.21943e-05
4.00834e-05
3.76798e-05
3.49944e-05
3.20518e-05
2.88936e-05
2.5579e-05
2.21842e-05
1.87992e-05
1.55219e-05
1.24489e-05
9.66616e-06
7.23938e-06
5.20781e-06
3.58179e-06
2.34393e-06
1.64e-06
9.10662e-07
4.69064e-07
2.3642e-07
1.10702e-07
3.59223e-08
1.06001e-08
2.01661e-09
4.32731e-10
1.64855e-11
3.50391e-05
3.97731e-05
4.21187e-05
4.37826e-05
4.50909e-05
4.61713e-05
4.7084e-05
4.78592e-05
4.85113e-05
4.90454e-05
4.94854e-05
4.98594e-05
5.01661e-05
5.03939e-05
5.05288e-05
5.05549e-05
5.04549e-05
5.02095e-05
4.97986e-05
4.92006e-05
4.83933e-05
4.73549e-05
4.60641e-05
4.45019e-05
4.26534e-05
4.05093e-05
3.80694e-05
3.53448e-05
3.23612e-05
2.91609e-05
2.58043e-05
2.23691e-05
1.89467e-05
1.5636e-05
1.25344e-05
9.72819e-06
7.28314e-06
5.23801e-06
3.60245e-06
2.35777e-06
1.6457e-06
9.2348e-07
4.76915e-07
2.40954e-07
1.13343e-07
3.7049e-08
1.14366e-08
2.49142e-09
4.15798e-10
5.19536e-22
3.47461e-05
3.93991e-05
4.17003e-05
4.33312e-05
4.46136e-05
4.56733e-05
4.65695e-05
4.73314e-05
4.79715e-05
4.84934e-05
4.893e-05
4.93046e-05
4.96122e-05
4.98414e-05
4.99786e-05
5.0008e-05
4.99123e-05
4.96727e-05
4.9269e-05
4.868e-05
4.7884e-05
4.68592e-05
4.55848e-05
4.40421e-05
4.22162e-05
4.00981e-05
3.76875e-05
3.49951e-05
3.20463e-05
2.88825e-05
2.55633e-05
2.21651e-05
1.87783e-05
1.55004e-05
1.24282e-05
9.64727e-06
7.2232e-06
5.19497e-06
3.57274e-06
2.33831e-06
1.62263e-06
9.17664e-07
4.73637e-07
2.38908e-07
1.12258e-07
3.61903e-08
1.09577e-08
2.24873e-09
3.31328e-10
4.46718e-12
3.37452e-05
3.81353e-05
4.02995e-05
4.18351e-05
4.30471e-05
4.40538e-05
4.49102e-05
4.5642e-05
4.6255e-05
4.67589e-05
4.71968e-05
4.75777e-05
4.78936e-05
4.8133e-05
4.82824e-05
4.83266e-05
4.82487e-05
4.80307e-05
4.76532e-05
4.70959e-05
4.6338e-05
4.53588e-05
4.41384e-05
4.26588e-05
4.09057e-05
3.88703e-05
3.6552e-05
3.39607e-05
3.11199e-05
2.80689e-05
2.48641e-05
2.15784e-05
1.82983e-05
1.51183e-05
1.21325e-05
9.42485e-06
7.06061e-06
5.07934e-06
3.49261e-06
2.28418e-06
1.57812e-06
8.95181e-07
4.60091e-07
2.31128e-07
1.0789e-07
3.40211e-08
9.84373e-09
1.84361e-09
2.3392e-10
3.05812e-12
3.20837e-05
3.6058e-05
3.80099e-05
3.94004e-05
4.05066e-05
4.14348e-05
4.22328e-05
4.29194e-05
4.34904e-05
4.39825e-05
4.44261e-05
4.48166e-05
4.51453e-05
4.54005e-05
4.55692e-05
4.56366e-05
4.55869e-05
4.5403e-05
4.5067e-05
4.456e-05
4.38628e-05
4.29561e-05
4.18216e-05
4.04426e-05
3.88055e-05
3.69021e-05
3.47311e-05
3.23012e-05
2.96333e-05
2.67629e-05
2.37414e-05
2.06363e-05
1.75281e-05
1.45059e-05
1.16594e-05
9.07017e-06
6.80267e-06
4.89737e-06
3.36795e-06
2.20136e-06
1.51433e-06
8.61518e-07
4.41472e-07
2.20682e-07
1.02067e-07
3.14483e-08
8.89217e-09
1.59027e-09
1.0163e-10
7.46e-23
2.98007e-05
3.3241e-05
3.4926e-05
3.61362e-05
3.71121e-05
3.79441e-05
3.86702e-05
3.92943e-05
3.98269e-05
4.03154e-05
4.07638e-05
4.11644e-05
4.15072e-05
4.17807e-05
4.19721e-05
4.20676e-05
4.20524e-05
4.19112e-05
4.16278e-05
4.11852e-05
4.05661e-05
3.97535e-05
3.87307e-05
3.74829e-05
3.59978e-05
3.42674e-05
3.22902e-05
3.00731e-05
2.76337e-05
2.50029e-05
2.22257e-05
1.93621e-05
1.64849e-05
1.36757e-05
1.10181e-05
8.59009e-06
6.45467e-06
4.65342e-06
3.20279e-06
2.09414e-06
1.43465e-06
8.22545e-07
4.2082e-07
2.0963e-07
9.60803e-08
2.89937e-08
8.1585e-09
1.39966e-09
7.80843e-11
5.52611e-14
2.69912e-05
2.98273e-05
3.12168e-05
3.22296e-05
3.30638e-05
3.37911e-05
3.44366e-05
3.49915e-05
3.5501e-05
3.59844e-05
3.64346e-05
3.68423e-05
3.71968e-05
3.74867e-05
3.76999e-05
3.78236e-05
3.78448e-05
3.77498e-05
3.75245e-05
3.71542e-05
3.66241e-05
3.59193e-05
3.50256e-05
3.393e-05
3.26217e-05
3.10936e-05
2.93436e-05
2.7377e-05
2.52078e-05
2.28614e-05
2.03759e-05
1.78026e-05
1.52047e-05
1.26547e-05
1.02286e-05
7.99915e-06
6.02716e-06
4.35506e-06
3.00222e-06
1.96235e-06
1.34621e-06
7.76349e-07
3.97032e-07
1.9807e-07
9.02462e-08
2.67072e-08
7.45524e-09
1.19039e-09
8.72267e-11
8.17292e-13
2.37793e-05
2.59963e-05
2.70897e-05
2.79068e-05
2.86006e-05
2.92232e-05
2.97783e-05
3.02836e-05
3.07752e-05
3.12484e-05
3.16943e-05
3.21026e-05
3.24625e-05
3.27628e-05
3.29925e-05
3.31403e-05
3.31948e-05
3.31444e-05
3.29772e-05
3.26809e-05
3.22434e-05
3.16521e-05
3.08955e-05
2.99625e-05
2.88442e-05
2.75341e-05
2.60303e-05
2.4336e-05
2.24622e-05
2.04288e-05
1.82662e-05
1.60166e-05
1.37328e-05
1.14768e-05
9.31568e-06
7.31509e-06
5.53273e-06
4.01129e-06
2.7736e-06
1.82053e-06
1.23561e-06
7.19486e-07
3.68248e-07
1.83159e-07
8.33478e-08
2.44362e-08
6.86865e-09
1.14545e-09
8.08398e-11
9.42502e-13
2.03208e-05
2.19567e-05
2.27787e-05
2.34173e-05
2.39824e-05
2.45058e-05
2.4982e-05
2.54523e-05
2.59197e-05
2.6375e-05
2.68076e-05
2.72071e-05
2.75626e-05
2.78642e-05
2.81017e-05
2.82656e-05
2.83464e-05
2.83346e-05
2.82205e-05
2.79943e-05
2.76464e-05
2.71669e-05
2.65463e-05
2.57762e-05
2.4849e-05
2.37596e-05
2.25058e-05
2.10898e-05
1.95194e-05
1.78094e-05
1.59833e-05
1.40738e-05
1.21233e-05
1.01827e-05
8.30856e-06
6.55852e-06
4.98534e-06
3.63034e-06
2.51863e-06
1.65445e-06
1.1251e-06
6.53038e-07
3.31638e-07
1.64354e-07
7.53563e-08
2.22543e-08
5.82666e-09
1.05615e-09
6.94931e-11
4.02962e-13
1.67935e-05
1.79285e-05
1.85212e-05
1.90089e-05
1.94632e-05
1.98942e-05
2.03165e-05
2.07504e-05
2.11867e-05
2.16146e-05
2.20233e-05
2.24025e-05
2.27424e-05
2.30339e-05
2.32686e-05
2.34385e-05
2.3536e-05
2.35538e-05
2.34842e-05
2.332e-05
2.30535e-05
2.26775e-05
2.21847e-05
2.15685e-05
2.08234e-05
1.99452e-05
1.8932e-05
1.7785e-05
1.65096e-05
1.51164e-05
1.36224e-05
1.2052e-05
1.04374e-05
8.81838e-06
7.2407e-06
5.75287e-06
4.40152e-06
3.22563e-06
2.2512e-06
1.48901e-06
1.00735e-06
5.89243e-07
2.96167e-07
1.44556e-07
6.64762e-08
2.44943e-08
6.33053e-09
1.09492e-09
7.44904e-11
5.53598e-13
1.33799e-05
1.41189e-05
1.45326e-05
1.49006e-05
1.52637e-05
1.56213e-05
1.59983e-05
1.63908e-05
1.67877e-05
1.71783e-05
1.75522e-05
1.78997e-05
1.82124e-05
1.84827e-05
1.87036e-05
1.88689e-05
1.89729e-05
1.90099e-05
1.89745e-05
1.88613e-05
1.86647e-05
1.83796e-05
1.80006e-05
1.75231e-05
1.69429e-05
1.6257e-05
1.54639e-05
1.45643e-05
1.35617e-05
1.24634e-05
1.12812e-05
1.00323e-05
8.74e-06
7.43372e-06
6.14851e-06
4.92319e-06
3.79707e-06
2.80536e-06
1.97434e-06
1.31556e-06
9.12058e-07
5.37428e-07
2.69389e-07
1.29725e-07
5.85992e-08
2.19658e-08
5.86227e-09
9.37543e-10
5.76481e-11
3.09186e-13
1.02456e-05
1.06978e-05
1.09816e-05
1.12589e-05
1.15458e-05
1.1851e-05
1.21816e-05
1.25273e-05
1.28774e-05
1.32219e-05
1.35513e-05
1.38575e-05
1.41334e-05
1.43728e-05
1.45707e-05
1.47221e-05
1.4823e-05
1.48695e-05
1.48576e-05
1.47837e-05
1.4644e-05
1.44349e-05
1.41527e-05
1.37943e-05
1.33569e-05
1.28382e-05
1.22374e-05
1.15548e-05
1.07928e-05
9.95611e-06
9.05274e-06
8.09423e-06
7.0965e-06
6.08015e-06
5.07049e-06
4.0967e-06
3.19013e-06
2.38129e-06
1.69563e-06
1.14942e-06
7.89311e-07
4.89901e-07
2.49779e-07
1.19205e-07
5.24777e-08
1.93305e-08
5.1909e-09
8.24636e-10
5.12793e-11
2.66425e-13
7.51713e-06
7.77956e-06
7.9742e-06
8.18446e-06
8.41382e-06
8.67248e-06
8.95413e-06
9.24871e-06
9.54646e-06
9.83847e-06
1.0117e-05
1.03753e-05
1.06079e-05
1.08102e-05
1.09784e-05
1.11092e-05
1.11997e-05
1.12474e-05
1.12498e-05
1.12043e-05
1.11085e-05
1.09601e-05
1.07568e-05
1.04965e-05
1.01773e-05
9.79795e-06
9.35784e-06
8.85732e-06
8.29796e-06
7.68293e-06
7.01735e-06
6.30872e-06
5.56742e-06
4.80704e-06
4.0447e-06
3.30082e-06
2.59842e-06
1.96132e-06
1.41177e-06
9.65533e-07
6.15878e-07
3.55119e-07
1.82e-07
8.41342e-08
3.48603e-08
1.14455e-08
2.68742e-09
3.76169e-10
1.66195e-11
9.04587e-14
5.26731e-06
5.41461e-06
5.55037e-06
5.71079e-06
5.89564e-06
6.10857e-06
6.34035e-06
6.58183e-06
6.82469e-06
7.06167e-06
7.28665e-06
7.49457e-06
7.68139e-06
7.84386e-06
7.97941e-06
8.08591e-06
8.16156e-06
8.20474e-06
8.21392e-06
8.1876e-06
8.12428e-06
8.02249e-06
7.88084e-06
7.69804e-06
7.47301e-06
7.20502e-06
6.89377e-06
6.53961e-06
6.14365e-06
5.70799e-06
5.23593e-06
4.73222e-06
4.20334e-06
3.65784e-06
3.10657e-06
2.56286e-06
2.04219e-06
1.56133e-06
1.13702e-06
7.8395e-07
5.05667e-07
2.9483e-07
1.5485e-07
7.27477e-08
2.92532e-08
9.51675e-09
2.24006e-09
3.00513e-10
1.46763e-11
8.48942e-14
3.51163e-06
3.59423e-06
3.69081e-06
3.81204e-06
3.95985e-06
4.12929e-06
4.3124e-06
4.50175e-06
4.69082e-06
4.87407e-06
5.047e-06
5.20603e-06
5.34841e-06
5.47205e-06
5.57534e-06
5.65702e-06
5.71605e-06
5.75152e-06
5.76255e-06
5.74829e-06
5.70787e-06
5.64046e-06
5.54523e-06
5.42145e-06
5.26853e-06
5.0861e-06
4.87408e-06
4.63281e-06
4.3631e-06
4.06638e-06
3.74477e-06
3.40124e-06
3.03978e-06
2.66551e-06
2.28497e-06
1.90628e-06
1.53911e-06
1.19429e-06
8.82976e-07
6.16585e-07
4.01921e-07
2.39107e-07
1.27871e-07
6.04903e-08
2.43914e-08
7.89548e-09
1.85042e-09
2.52617e-10
1.25257e-11
7.28599e-14
2.21671e-06
2.26488e-06
2.33463e-06
2.42603e-06
2.53946e-06
2.6683e-06
2.80614e-06
2.94731e-06
3.087e-06
3.22128e-06
3.34708e-06
3.4621e-06
3.56461e-06
3.6534e-06
3.72756e-06
3.78642e-06
3.82945e-06
3.85619e-06
3.86619e-06
3.85898e-06
3.83412e-06
3.79113e-06
3.72958e-06
3.64906e-06
3.54929e-06
3.43009e-06
3.29151e-06
3.13384e-06
2.95769e-06
2.764e-06
2.55418e-06
2.33008e-06
2.09411e-06
1.8493e-06
1.5994e-06
1.34904e-06
1.10382e-06
8.70227e-07
6.55095e-07
4.65875e-07
3.09074e-07
1.87723e-07
1.02383e-07
4.90687e-08
1.99447e-08
6.48347e-09
1.52113e-09
2.08586e-10
1.03822e-11
6.0462e-14
1.31623e-06
1.34611e-06
1.39612e-06
1.46345e-06
1.54637e-06
1.63929e-06
1.73743e-06
1.83677e-06
1.93402e-06
2.02663e-06
2.11269e-06
2.19085e-06
2.26017e-06
2.31999e-06
2.3699e-06
2.40959e-06
2.43882e-06
2.4574e-06
2.46512e-06
2.46174e-06
2.44705e-06
2.4208e-06
2.38277e-06
2.33275e-06
2.2706e-06
2.19628e-06
2.10985e-06
2.01156e-06
1.90182e-06
1.78128e-06
1.65082e-06
1.51161e-06
1.36509e-06
1.21304e-06
1.05757e-06
9.01198e-07
7.46926e-07
5.98294e-07
4.59138e-07
3.33745e-07
2.26626e-07
1.41129e-07
7.88527e-08
3.85234e-08
1.58706e-08
5.20332e-09
1.22562e-09
1.68479e-10
8.3963e-12
4.89068e-14
7.28267e-07
7.47776e-07
7.8228e-07
8.30044e-07
8.87264e-07
9.50204e-07
1.01566e-06
1.081e-06
1.1442e-06
1.20376e-06
1.25863e-06
1.30812e-06
1.35177e-06
1.3893e-06
1.42056e-06
1.44544e-06
1.46385e-06
1.47573e-06
1.48099e-06
1.47953e-06
1.47125e-06
1.45603e-06
1.43375e-06
1.40432e-06
1.36769e-06
1.32384e-06
1.27285e-06
1.21488e-06
1.1502e-06
1.07923e-06
1.00251e-06
9.20743e-07
8.34791e-07
7.45672e-07
6.54568e-07
5.62823e-07
4.71965e-07
3.83775e-07
3.00198e-07
2.23402e-07
1.55892e-07
1.00058e-07
5.76463e-08
2.89341e-08
1.2167e-08
4.04288e-09
9.59054e-10
1.32265e-10
6.59884e-12
3.84384e-14
3.70436e-07
3.83522e-07
4.06575e-07
4.37926e-07
4.74577e-07
5.14068e-07
5.54408e-07
5.9406e-07
6.31908e-07
6.67187e-07
6.99402e-07
7.28252e-07
7.53568e-07
7.75262e-07
7.93292e-07
8.07639e-07
8.18292e-07
8.25234e-07
8.28437e-07
8.27862e-07
8.23459e-07
8.15177e-07
8.02961e-07
7.86771e-07
7.66581e-07
7.424e-07
7.14276e-07
6.82313e-07
6.46677e-07
6.07606e-07
5.6542e-07
5.20517e-07
4.73381e-07
4.24579e-07
3.74753e-07
3.24613e-07
2.74923e-07
2.26533e-07
1.80349e-07
1.37345e-07
9.86624e-08
6.55584e-08
3.92382e-08
2.04387e-08
8.86384e-09
3.00901e-09
7.22382e-10
1.00158e-10
5.00562e-12
2.91603e-14
1.69732e-07
1.78321e-07
1.92753e-07
2.11623e-07
2.33042e-07
2.55574e-07
2.78128e-07
2.99922e-07
3.20437e-07
3.39351e-07
3.56475e-07
3.71714e-07
3.85024e-07
3.96394e-07
4.05827e-07
4.13332e-07
4.18916e-07
4.22579e-07
4.24315e-07
4.24108e-07
4.21939e-07
4.17786e-07
4.11623e-07
4.03434e-07
3.9321e-07
3.80958e-07
3.66707e-07
3.50514e-07
3.32468e-07
3.12698e-07
2.91369e-07
2.68691e-07
2.44917e-07
2.20339e-07
1.95284e-07
1.70111e-07
1.45195e-07
1.20929e-07
9.77164e-08
7.5964e-08
5.61135e-08
3.86689e-08
2.41964e-08
1.32322e-08
6.00638e-09
2.1115e-09
5.17618e-10
7.2448e-11
3.63142e-12
2.116e-14
6.79532e-08
7.31853e-08
8.14261e-08
9.15741e-08
1.0269e-07
1.14064e-07
1.25195e-07
1.35761e-07
1.45571e-07
1.54523e-07
1.62568e-07
1.69689e-07
1.75886e-07
1.81167e-07
1.85543e-07
1.89024e-07
1.91617e-07
1.93326e-07
1.9415e-07
1.94083e-07
1.93119e-07
1.91247e-07
1.88459e-07
1.84747e-07
1.80108e-07
1.74546e-07
1.68077e-07
1.60727e-07
1.52538e-07
1.43571e-07
1.33902e-07
1.23631e-07
1.12873e-07
1.01764e-07
9.04557e-08
7.91119e-08
6.79038e-08
5.70052e-08
4.6589e-08
3.68193e-08
2.7855e-08
1.98603e-08
1.30195e-08
7.54934e-09
3.65344e-09
1.35949e-09
3.46222e-10
4.93428e-11
2.48689e-12
1.4499e-14
2.27199e-08
2.5598e-08
2.96126e-08
3.42764e-08
3.91862e-08
4.40573e-08
4.87131e-08
5.30565e-08
5.70399e-08
6.0644e-08
6.38644e-08
6.67039e-08
6.91687e-08
7.12659e-08
7.30022e-08
7.43832e-08
7.5413e-08
7.60937e-08
7.64254e-08
7.64065e-08
7.60345e-08
7.53059e-08
7.42171e-08
7.27656e-08
7.09505e-08
6.87738e-08
6.62415e-08
6.33646e-08
6.016e-08
5.66515e-08
5.28703e-08
4.88551e-08
4.46525e-08
4.03159e-08
3.59055e-08
3.14865e-08
2.71267e-08
2.28947e-08
1.88577e-08
1.50781e-08
1.16121e-08
8.50971e-09
5.81718e-09
3.58562e-09
1.88049e-09
7.63764e-10
2.08781e-10
3.0906e-11
1.57592e-12
9.19949e-15
5.90327e-09
7.19899e-09
8.76772e-09
1.04806e-08
1.2206e-08
1.38632e-08
1.54119e-08
1.68353e-08
1.81284e-08
1.92915e-08
2.03268e-08
2.12375e-08
2.20269e-08
2.2698e-08
2.32534e-08
2.36952e-08
2.40249e-08
2.42432e-08
2.43503e-08
2.43458e-08
2.42288e-08
2.39984e-08
2.36534e-08
2.3193e-08
2.26171e-08
2.19263e-08
2.11226e-08
2.02096e-08
1.91926e-08
1.80793e-08
1.68798e-08
1.56063e-08
1.42739e-08
1.28996e-08
1.15026e-08
1.01038e-08
8.7249e-09
7.38799e-09
6.11455e-09
4.92471e-09
3.83625e-09
2.86402e-09
2.01941e-09
1.31095e-09
7.47028e-10
3.40914e-10
1.05585e-10
1.70192e-11
8.93816e-13
5.23481e-15
1.06436e-09
1.47444e-09
1.91233e-09
2.35943e-09
2.78926e-09
3.18982e-09
3.55749e-09
3.89197e-09
4.1941e-09
4.46493e-09
4.70557e-09
4.91701e-09
5.10017e-09
5.25582e-09
5.38462e-09
5.48709e-09
5.56357e-09
5.61428e-09
5.63924e-09
5.63839e-09
5.61151e-09
5.55838e-09
5.47876e-09
5.37247e-09
5.23945e-09
5.07988e-09
4.89421e-09
4.68327e-09
4.44833e-09
4.19117e-09
3.91412e-09
3.62004e-09
3.31238e-09
2.99514e-09
2.67275e-09
2.35003e-09
2.03204e-09
1.72389e-09
1.43058e-09
1.15682e-09
9.06808e-10
6.84044e-10
4.91154e-10
3.29722e-10
2.00273e-10
1.0278e-10
3.81775e-11
7.41158e-12
4.25492e-13
2.52099e-15
1.09406e-10
1.81184e-10
2.50767e-10
3.17008e-10
3.78066e-10
4.33754e-10
4.84345e-10
5.30146e-10
5.71415e-10
6.08363e-10
6.41168e-10
6.69981e-10
6.94933e-10
7.16135e-10
7.3368e-10
7.47637e-10
7.58057e-10
7.64967e-10
7.68374e-10
7.68267e-10
7.64616e-10
7.57393e-10
7.46562e-10
7.321e-10
7.14001e-10
6.92286e-10
6.67019e-10
6.38313e-10
6.06342e-10
5.71349e-10
5.33651e-10
4.9364e-10
4.51787e-10
4.08634e-10
3.64788e-10
3.20904e-10
2.77671e-10
2.35785e-10
1.95927e-10
1.58739e-10
1.24798e-10
9.45869e-11
6.84755e-11
4.6695e-11
2.93158e-11
1.62285e-11
7.16597e-12
1.90226e-12
1.44704e-13
9.09188e-16