/*--------------------------------*- C++ -*----------------------------------*\
| =========                 |                                                 |
| \\      /  F ield         | foam-extend: Open Source CFD                    |
|  \\    /   O peration     | Version:     4.0                                |
|   \\  /    A nd           | Web:         http://www.foam-extend.org         |
|    \\/     M anipulation  |                                                 |
\*---------------------------------------------------------------------------*/
FoamFile
{
    version     2.0;
    format      ascii;
    class       volScalarField;
    location    "0.0011";
    object      omega;
}
// * * * * * * * * * * * * * * * * * * * * * * * * * * * * * * * * * * * * * //

dimensions      [0 0 -1 0 0 0 0];

internalField   nonuniform List<scalar> 
28770
(
1.87595e+07
1.87595e+07
1.87595e+07
1.87595e+07
1.87595e+07
1.87595e+07
1.87595e+07
1.87595e+07
1.87595e+07
1.87595e+07
1.87595e+07
1.87595e+07
1.87595e+07
1.87595e+07
1.87595e+07
1.87595e+07
1.87595e+07
1.87595e+07
1.87595e+07
1.87595e+07
1.87595e+07
1.87595e+07
1.87595e+07
1.87595e+07
1.87595e+07
1.87595e+07
1.87595e+07
1.87595e+07
1.87595e+07
1.87595e+07
1.87595e+07
1.87595e+07
1.87595e+07
1.87595e+07
1.87595e+07
1.87595e+07
1.87595e+07
1.87595e+07
1.87595e+07
1.87595e+07
1.87595e+07
1.87595e+07
1.87595e+07
1.87595e+07
1.87595e+07
1.87595e+07
1.87595e+07
1.87595e+07
1.87595e+07
1.87595e+07
2.70012e+06
3.18574e+06
3.23008e+06
3.23475e+06
3.23538e+06
3.23549e+06
3.23552e+06
3.23553e+06
3.23554e+06
3.23554e+06
3.23554e+06
3.23554e+06
3.23554e+06
3.23554e+06
3.23554e+06
3.23554e+06
3.23554e+06
3.23554e+06
3.23554e+06
3.23554e+06
3.23554e+06
3.23554e+06
3.23554e+06
3.23554e+06
3.23555e+06
3.23555e+06
3.23555e+06
3.23555e+06
3.23555e+06
3.23555e+06
3.23555e+06
3.23555e+06
3.23555e+06
3.23556e+06
3.23556e+06
3.23556e+06
3.23556e+06
3.23557e+06
3.23557e+06
3.23558e+06
3.23559e+06
3.23562e+06
3.23569e+06
3.23586e+06
3.23645e+06
3.23893e+06
3.25307e+06
3.36212e+06
4.43128e+06
1.79872e+07
679411
1.01713e+06
1.08473e+06
1.09848e+06
1.10156e+06
1.10235e+06
1.10259e+06
1.10267e+06
1.1027e+06
1.10272e+06
1.10272e+06
1.10273e+06
1.10273e+06
1.10273e+06
1.10273e+06
1.10273e+06
1.10273e+06
1.10273e+06
1.10273e+06
1.10273e+06
1.10273e+06
1.10273e+06
1.10273e+06
1.10273e+06
1.10273e+06
1.10273e+06
1.10274e+06
1.10274e+06
1.10274e+06
1.10274e+06
1.10274e+06
1.10274e+06
1.10274e+06
1.10275e+06
1.10275e+06
1.10276e+06
1.10277e+06
1.10278e+06
1.10281e+06
1.10287e+06
1.10298e+06
1.10322e+06
1.10379e+06
1.10531e+06
1.10991e+06
1.12603e+06
1.19192e+06
1.50335e+06
3.24976e+06
1.79872e+07
228610
431006
496274
516081
522232
524267
524998
525285
525407
525464
525492
525507
525515
525520
525523
525525
525526
525527
525528
525528
525529
525529
525530
525531
525531
525532
525534
525535
525537
525540
525543
525549
525556
525567
525583
525609
525651
525722
525846
526077
526528
527466
529567
534666
548180
587437
712735
1.16002e+06
3.12319e+06
1.79872e+07
96112.1
214074
266517
287530
295780
299085
300466
301074
301357
301497
301569
301609
301631
301644
301653
301658
301661
301664
301666
301667
301668
301670
301671
301672
301674
301676
301679
301683
301688
301695
301704
301718
301739
301769
301815
301887
302004
302199
302535
303140
304280
306534
311243
321670
346213
407822
574731
1.08477e+06
3.10622e+06
1.79872e+07
47915.2
118605
157761
176973
185978
190172
192157
193125
193614
193870
194010
194090
194136
194165
194182
194194
194202
194207
194211
194214
194217
194219
194222
194225
194229
194233
194239
194247
194258
194274
194295
194326
194371
194437
194538
194695
194944
195351
196037
197231
199387
203432
211342
227492
262029
340007
530309
1.06585e+06
3.1032e+06
1.79872e+07
27088
71383.2
99973.4
116273
125035
129641
132060
133347
134047
134437
134661
134793
134873
134923
134955
134976
134990
135000
135008
135014
135019
135024
135029
135034
135041
135050
135061
135076
135097
135126
135167
135225
135309
135432
135618
135901
136343
137049
138207
140155
143532
149560
160674
181886
224028
312395
514670
1.06035e+06
3.10248e+06
1.79872e+07
16771.7
45842.5
66767.2
80103.9
88084.8
92711.4
95362.8
96884.9
97767.9
98288.4
98601.1
98793
98913.3
98990.5
99041.2
99075.3
99098.8
99115.6
99128.2
99138.2
99146.8
99155
99163.5
99173.1
99184.8
99199.7
99219.1
99245.1
99280.5
99329.4
99397.6
99494.3
99632.9
99834.8
100133
100582
101270
102343
104054
106841
111488
119427
133353
158538
205917
300431
508664
1.05852e+06
3.10226e+06
1.79872e+07
11118
31086.8
46545.6
57281.1
64277.5
68672.4
71382.4
73043.5
74064.3
74697.1
75094.3
75347.3
75511.3
75619.4
75692
75741.9
75776.9
75802.4
75821.7
75837.2
75850.6
75863.4
75876.8
75891.9
75910.3
75933.5
75963.9
76004.4
76059.3
76134.5
76239
76385.6
76593.7
76893.1
77329.5
77974.7
78943.5
80421.8
82716.8
86344.1
92187.4
101798
117984
146067
196862
294916
506143
1.05782e+06
3.10219e+06
1.79872e+07
7767.45
22021.7
33629.7
42243.1
48250.9
52281.8
54925.6
56640.3
57749.2
58468.5
58938.5
59248.6
59455.8
59596.2
59692.8
59760.5
59809
59844.8
59872.3
59894.6
59914.2
59932.9
59952.5
59974.8
60001.7
60035.7
60080
60138.7
60217.9
60325.7
60474.1
60680.5
60970.4
61382
61973.3
62832.9
64099
65989.5
68853.1
73257.6
80145.1
91120.9
109019
139120
192084
292176
504964
1.05751e+06
3.10215e+06
1.79872e+07
5660.66
16174.3
25040.8
31988.2
37099.1
40718
43218.3
44921
46072.6
46850.7
47378
47737.6
47984.9
48156.9
48278
48364.6
48427.8
48475.2
48512.1
48542.5
48569.4
48595.3
48622.6
48653.5
48690.9
48737.9
48798.8
48879.2
48986.8
49132.4
49331.1
49604.7
49984.8
50517.6
51271.8
52350.7
53910.9
56193.9
59576.1
64655.4
72400.8
84430.3
103563
135016
189332
290611
504269
1.0573e+06
3.10212e+06
1.79872e+07
4276.19
12259.6
19173
24804.4
29135.8
32344.3
34661.1
36306.7
37464.6
38275.8
38844.2
39243.7
39526
39727.2
39872
39977.6
40056.1
40116
40163.3
40202.8
40238.1
40272.3
40308.3
40349.3
40398.7
40460.6
40540.5
40645.3
40784.8
40971.9
41225.2
41570.6
42045
42701.8
43618.5
44909.5
46744.9
49381.2
53210.5
58843.7
67254.6
80050.4
100018
132319
187421
289360
503531
1.05696e+06
3.10205e+06
1.79872e+07
3335.09
9556.63
15049.5
19653.4
23329.7
26157.1
28276.8
29838.3
30975.6
31798.7
32393
32822.4
33133.7
33360.6
33527.3
33651.3
33745.1
33817.7
33876
33925.2
33969.7
34013.1
34059
34111.2
34173.9
34252.2
34352.8
34484.1
34657.4
34888.5
35198.4
35617
36185.7
36963.6
38035
39521.8
41602.3
44540.8
48735.2
54797.1
63691.3
76994.1
97451.7
130168
185554
287635
501915
1.05568e+06
3.10149e+06
1.79872e+07
2678.7
7644.08
12087.6
15888.5
19024.8
21513.8
23439.6
24903.4
26002.5
26821.2
27428.6
27878.5
28212.4
28461
28647.3
28788.3
28896.7
28982
29051.4
29110.8
29164.9
29218.1
29274.6
29338.7
29415.7
29511.5
29633.8
29792.5
30000.8
30276.3
30642.9
31133.2
31792.7
32684.3
33897
35557
37846.3
41030.5
45505.4
51875.7
61091.8
74664.8
95286.9
127965
182977
284201
497128
1.04963e+06
3.09628e+06
1.79872e+07
2211.98
6264.96
9924.81
13106.2
15793.9
17987.4
19731.5
21093.9
22144.4
22947.3
23557.4
24019.9
24370.4
24636.5
24839.6
24996
25118
25215.5
25295.9
25365.4
25429.4
25492.7
25560.1
25636.7
25728.3
25842
25986.4
26172.8
26415.8
26734.8
27156
27714.5
28458.2
29453.1
30790.4
32598.3
35058.1
38431.5
43104.4
49667.4
59090.9
72712.3
93184.5
125308
178937
277023
482965
1.02053e+06
3.0409e+06
1.79872e+07
1875.47
5256.18
8324.87
11024.9
13343.7
15284.8
16865.1
18128.8
19126.2
19905.9
20511.4
20979.8
21341.5
21621.3
21838.3
22008.1
22142.5
22251.3
22342.2
22421.6
22495.4
22568.8
22647.2
22736.3
22842.6
22974
23140.2
23353.5
23629.9
23990.4
24462.8
25083.9
25903.6
26989.4
28433.6
30363.8
32958.4
36470.4
41264.6
47871.3
54519.7
67572.6
85801.8
113828
159347
239347
397242
770888
2.00891e+06
1.20425e+07
1630.57
4510.82
7130.75
9456.63
11474.6
13200.6
14637.2
15809.3
16753.1
17505.7
18101.4
18570.7
18939.5
19229.2
19457.6
19638.7
19784
19903.2
20003.8
20092.7
20175.9
20259.1
20348.2
20449.5
20570.1
20718.6
20905.6
21144.4
21452.1
21851
22369.8
23047.1
23933.6
25097.4
26630.9
28660
31359.4
34975.1
39861.6
46546
53233.6
66072.7
83992.6
111295
155269
232022
383251
747046
2.01433e+06
1.24057e+07
1451.31
3956.42
6234.2
8268.56
10049.5
11590.5
12901.8
13990.9
14883.5
15607.6
16190.5
16657.2
17029.5
17326.4
17563.5
17754
17908.8
18037.1
18146.6
18244.3
18336.3
18428.8
18528.1
18640.9
18775
18939.5
19145.9
19408.3
19744.5
20177.8
20738
21464.3
22408
23637.2
25243.6
27350.8
30129.5
33819
38763.4
45473.6
52176.1
64791.1
82407.5
109080
151846
226455
373633
730681
1.98889e+06
1.23852e+07
1319.82
3542.8
5559.46
7367.48
8961.77
10349
11550.3
12566.9
13412.4
14108.7
14677.4
15139.2
15512.7
15814.3
16058.1
16256.2
16418.9
16555.1
16672.5
16778
16878.1
16979.2
17087.9
17211.3
17357.8
17537
17760.9
18044.4
18406
18869.5
19465.5
20233.5
21225
22507.9
24172.1
26339.4
29176.1
32914.9
37890.1
44597.1
51290.9
63693.6
81024.6
107131
148702
233677
388312
766474
2.12099e+06
1.69429e+07
1223.55
3234.48
5052.43
6685.65
8133.37
9400.12
10504.6
11457.5
12261.2
12931.6
13486.1
13941.8
14314.7
14619.2
14867.9
15072
15241.2
15384.2
15508.4
15620.8
15728.1
15836.8
15953.9
16086.8
16244.3
16436.5
16675.9
16977.8
17361.3
17850.7
18476.9
19279.6
20310.2
21635.7
23345
25556.9
28433.9
32202.6
37188.3
43872.7
50539.9
62743.9
79813.1
105442
146155
229216
379643
746124
2.07349e+06
1.69159e+07
1153.52
3006.09
4674.01
6173.7
7508
8681.75
9706.32
10601.5
11369.7
12017.3
12558.6
13008
13379.4
13685.4
13937.6
14146.3
14320.8
14469.3
14599.2
14717.5
14830.9
14946.3
15070.6
15211.8
15378.8
15582.2
15834.8
16152.3
16554.2
17065.1
17716.1
18546.8
19608.4
20967.1
22710.1
24954
27857.3
31641
36621.8
43269.4
49895.6
61907.7
78725.8
103933
143949
225667
374255
737604
2.05478e+06
1.69044e+07
1103.35
2839.39
4395.91
5795.48
7043.8
8146.36
9111.89
9956.72
10693.1
11321.4
11851.2
12294.7
12664.1
12970.8
13225.4
13437.6
13616.1
13769
13903.5
14026.7
14145.2
14266.1
14396.5
14544.5
14719.4
14932
15195.4
15525.6
15942.4
16470.5
17141.2
17993.9
19079.3
20462.9
22230.4
24496.1
27414.9
31202.5
36167.6
42767.9
49342.8
61156.8
77707
102462
141723
221803
367569
722991
1.96286e+06
1.642e+07
1068.44
2721.33
4197.76
5524.79
6710.29
7760.4
8683.12
9490.01
10197.7
10810.4
11330.9
11769.4
12136.9
12443.8
12700.1
12914.8
13096.3
13252.5
13390.6
13517.5
13640.1
13765.2
13900.4
14053.8
14234.9
14454.8
14726.6
15066.7
15494.9
16036.1
16721.6
17590.7
18693.6
20095
21879.4
24159
27085.6
30870
35813.5
42361.3
48882.9
60482.4
76729.5
100935
139175
216653
356980
697873
2.0667e+06
1.16686e+07
1045.64
2642.85
4065.3
5343.16
6485.81
7499.92
8393.2
9175.54
9860.6
10459.7
10973.8
11408.7
11774.8
12081.7
12338.9
12555.3
12739
12897.5
13038.1
13167.7
13293.1
13421.4
13560
13717.3
13902.9
14127.9
14405.7
14752.8
15189.1
15739.6
16435.4
17315.8
18430.6
19844
21639.3
23927
26856.6
30634.6
35555.9
42054.5
48533.9
59907.7
75832.4
99396.9
136294
209920
341475
658979
1.98562e+06
1.20791e+07
1032.72
2597.5
3988.32
5237.22
6354.51
7347.22
8222.98
8991.02
9662.91
10251.9
10761.5
11194.5
11559.6
11866.5
12124.3
12341.7
12526.5
12686.5
12828.7
12959.9
13087
13217.2
13357.9
13517.6
13705.9
13934.1
14215.6
14566.9
15008.2
15564.2
16266.2
17153.3
18275.1
19695.4
21496.8
23788.7
26718.9
30491.1
35395.6
41857.8
48321.2
59485.3
75129.1
98088.1
133569
202668
320607
584511
1.28941e+06
5.47647e+06
1028.92
2583.17
3963.57
5202.85
6311.68
7297.23
8167.13
8930.44
9598.11
10183
10690.9
11123.4
11488.2
11795.1
12053.1
12270.8
12456.1
12616.5
12759.2
12890.9
13018.7
13149.5
13290.9
13451.4
13640.6
13869.8
14152.6
14505.3
14948.2
15506.1
16210.2
17099.5
18223.6
19646.1
21449.5
23742.7
26672.8
30442.7
35340.8
41789.5
48277.4
59283.6
74779.4
97401.6
132034
198673
307156
524392
967341
1.9248e+06
1033.97
2599.16
3989.97
5238.7
6355.78
7348.27
8223.82
8991.69
9663.39
10252.2
10761.8
11194.7
11559.8
11866.7
12124.5
12341.8
12526.7
12686.7
12828.8
12960
13087.1
13217.3
13358
13517.7
13706
13934.1
14215.6
14566.9
15008.1
15564.1
16266.1
17153.2
18275
19695.2
21496.6
23788.6
26718.7
30490.9
35395.3
41857.4
48409.3
59351.4
74898
97637.3
132570
201158
315685
563644
1.22117e+06
5.04507e+06
1048.11
2646.1
4068.53
5346.04
6488.25
7501.91
8394.79
9176.77
9861.45
10460.4
10974.3
11409.2
11775.2
12082.1
12339.3
12555.6
12739.3
12897.8
13038.4
13168
13293.3
13421.5
13560.1
13717.4
13903
14127.9
14405.7
14752.8
15189
15739.5
16435.2
17315.6
18430.4
19843.7
21639
23926.7
26856.2
30634.2
35555.4
42053.7
48694.3
59672.3
75445.2
98688.4
134853
208047
336638
644855
1.63252e+06
1.18115e+07
1072.06
2726.05
4202.4
5528.91
6713.74
7763.19
8685.3
9491.63
10198.8
10811.3
11331.6
11770.1
12137.5
12444.4
12700.6
12915.2
13096.8
13252.9
13391
13517.9
13640.4
13765.5
13900.6
14054
14235
14454.8
14726.6
15066.6
15494.7
16035.9
16721.3
17590.3
18693.2
20094.6
21879
24158.6
27085.1
30869.4
35812.7
42360.3
49102
60177.5
76261.5
100152
137755
215134
353784
689116
1.70441e+06
1.34048e+07
1107.99
2845.42
4401.79
5800.64
7048.06
8149.73
9114.47
9958.51
10694.4
11322.5
11852.1
12295.5
12664.8
12971.4
13226
13438.2
13616.7
13769.5
13904
14027.1
14145.6
14266.3
14396.7
14544.7
14719.5
14932.1
15195.4
15525.5
15942.2
16470.2
17140.8
17993.4
19078.8
20462.3
22229.8
24495.5
27414.2
31201.8
36166.8
42766.7
49609.5
60806.9
77208.8
101704
140502
220663
364484
716946
2.14644e+06
1.83977e+07
1159.07
3013.24
4680.9
6179.66
7512.83
8685.49
9709.03
10603.4
11371.3
12018.6
12559.7
13009
13380.2
13686.1
13938.3
14146.9
14321.4
14469.8
14599.6
14717.9
14831.3
14946.6
15070.9
15212
15378.9
15582.2
15834.7
16152.1
16553.9
17064.7
17715.6
18546.3
19607.8
20966.4
22709.5
24953.3
27856.6
31640.2
36621
43268.3
50206.9
61520.3
78207.4
103200
142871
224779
371746
736490
2.11473e+06
1.69865e+07
1229.82
3242.49
5060.05
6692.12
8138.49
9403.94
10507.3
11459.6
12262.8
12932.9
13487.2
13942.8
14315.6
14619.9
14868.6
15072.6
15241.8
15384.7
15508.8
15621.2
15728.5
15837.1
15954.1
16087
16244.4
16436.5
16675.8
16977.6
17361
17850.3
18476.4
19279
20309.5
21635
23344.2
25556.1
28433.1
32201.9
37187.5
43871.7
50901.7
62311.5
79254.8
104673
145041
228325
377722
742770
2.0773e+06
1.69195e+07
1326.64
3551.39
5567.5
7374.15
8966.89
10352.6
11552.9
12569
13414.1
14110.1
14678.6
15140.2
15513.6
15815
16058.8
16256.8
16419.5
16555.6
16673
16778.5
16878.5
16979.5
17088.1
17211.5
17357.8
17537
17760.8
18044.1
18405.6
18869.1
19465
20232.9
21224.3
22507.1
24171.4
26338.6
29175.3
32914.1
37889.3
44596.2
51715.8
63200.8
80397.6
106254
147369
232457
385617
758559
2.0969e+06
1.692e+07
1458.47
3965.3
6242.32
8275.11
10054.3
11593.9
12904.4
13992.9
14885.1
15608.9
16191.6
16658.1
17030.3
17327.1
17564.2
17754.6
17909.4
18037.6
18147.1
18244.6
18336.6
18429.1
18528.3
18641
18775
18939.5
19145.8
19408
19744.2
20177.4
20737.5
21463.6
22407.2
23636.5
25242.7
27350
30128.7
33818.3
38762.7
45472.9
52681.5
64220.5
81691
108072
150257
223940
368283
716087
1.9333e+06
1.21638e+07
1637.85
4519.66
7138.64
9462.76
11478.9
13203.7
14639.6
15811.1
16754.5
17506.8
18102.3
18571.5
18940.1
19229.8
19458.1
19639.2
19784.5
19903.6
20004.2
20093
20176.2
20259.4
20348.4
20449.6
20570.1
20718.5
20905.5
21144.2
21451.8
21850.5
22369.3
23046.5
23932.9
25096.7
26630.1
28659.2
31358.6
34974.4
39861
46545.4
53844
65405.7
83171.9
110149
153497
229122
378423
739963
2.00775e+06
1.24058e+07
1882.65
5264.67
8332.2
11030.3
13347.4
15287.6
16867.1
18130.4
19127.4
19906.8
20512.1
20980.4
21342.1
21621.7
21838.8
22008.5
22142.9
22251.6
22342.5
22421.9
22495.6
22569
22647.3
22736.4
22842.6
22974
23140.1
23353.3
23629.6
23990
24462.3
25083.3
25903
26988.7
28432.9
30363.1
32957.6
36469.7
41264
47870.8
55290.6
66793.8
84869.1
112522
157213
235374
389155
755747
2.01698e+06
1.23779e+07
2218.84
6272.82
9931.34
13110.8
15797.1
17989.7
19733.2
21095.1
22145.3
22948
23558
24020.4
24370.7
24636.8
24839.9
24996.2
25118.3
25215.7
25296.1
25365.6
25429.5
25492.8
25560.2
25636.7
25728.3
25841.9
25986.2
26172.6
26415.5
26734.5
27155.6
27714
28457.6
29452.4
30789.7
32597.6
35057.5
38430.9
43103.9
49667
59090.6
72712.1
93184.3
125308
178937
277023
482965
1.02053e+06
3.0409e+06
1.79872e+07
2685.05
7651.07
12093.2
15892.2
19027.3
21515.6
23440.8
24904.3
26003.1
26821.7
27428.9
27878.8
28212.6
28461.2
28647.5
28788.5
28896.9
28982.2
29051.6
29110.9
29165
29218.2
29274.6
29338.8
29415.7
29511.4
29633.7
29792.4
30000.6
30276
30642.5
31132.8
31792.2
32683.8
33896.4
35556.5
37845.8
41030
45504.9
51875.3
61091.6
74664.6
95286.7
127965
182977
284201
497128
1.04963e+06
3.09628e+06
1.79872e+07
3340.76
9562.58
15053.9
19656.1
23331.6
26158.4
28277.7
29838.8
30975.9
31798.9
32393.2
32822.5
33133.8
33360.7
33527.4
33651.4
33745.1
33817.8
33876
33925.3
33969.7
34013.1
34059
34111.2
34173.8
34252.2
34352.7
34483.9
34657.3
34888.2
35198.2
35616.6
36185.3
36963.2
38034.5
39521.3
41601.8
44540.3
48734.8
54796.8
63691.1
76994
97451.6
130168
185554
287635
501915
1.05568e+06
3.10149e+06
1.79872e+07
4281.05
12264.4
19176.3
24806.4
29137.1
32345.1
34661.6
36307
37464.7
38275.9
38844.2
39243.7
39526
39727.2
39872
39977.6
40056.1
40115.9
40163.3
40202.8
40238
40272.2
40308.3
40349.3
40398.7
40460.6
40540.4
40645.3
40784.6
40971.8
41225
41570.4
42044.7
42701.5
43618.2
44909.2
46744.6
49380.8
53210.2
58843.4
67254.5
80050.3
100018
132319
187421
289360
503531
1.05696e+06
3.10205e+06
1.79872e+07
5664.63
16177.9
25043
31989.5
37099.8
40718.4
43218.5
44921
46072.6
46850.6
47377.9
47737.5
47984.8
48156.8
48277.9
48364.5
48427.7
48475.1
48512
48542.5
48569.4
48595.3
48622.5
48653.5
48690.8
48737.8
48798.7
48879.1
48986.7
49132.3
49331
49604.6
49984.6
50517.4
51271.6
52350.5
53910.7
56193.6
59575.9
64655.2
72400.6
84430.2
103563
135016
189332
290611
504269
1.0573e+06
3.10212e+06
1.79872e+07
7770.47
22024
33630.9
42243.8
48251.2
52281.9
54925.5
56640.1
57749
58468.3
58938.3
59248.4
59455.6
59596
59692.6
59760.3
59808.9
59844.7
59872.2
59894.5
59914.1
59932.8
59952.4
59974.7
60001.7
60035.7
60080
60138.7
60217.9
60325.7
60474.1
60680.5
60970.3
61382
61973.2
62832.8
64098.9
65989.4
68853
73257.4
80145
91120.9
109019
139120
192084
292176
504964
1.05751e+06
3.10215e+06
1.79872e+07
11120
31087.8
46545.9
57281.2
64277.4
68672.2
71382.2
73043.2
74064.1
74696.9
75094.1
75347.1
75511.1
75619.2
75691.8
75741.7
75776.8
75802.3
75821.6
75837.1
75850.5
75863.3
75876.7
75891.9
75910.2
75933.5
75963.9
76004.4
76059.3
76134.6
76239
76385.6
76593.7
76893.1
77329.4
77974.6
78943.4
80421.8
82716.7
86344
92187.3
101798
117984
146067
196862
294916
506143
1.05782e+06
3.10219e+06
1.79872e+07
16772.7
45841.7
66766.5
80103.4
88084.5
92711.1
95362.5
96884.7
97767.7
98288.1
98600.9
98792.8
98913.2
98990.4
99041
99075.1
99098.7
99115.5
99128.1
99138.1
99146.8
99154.9
99163.4
99173.1
99184.8
99199.7
99219.1
99245.1
99280.6
99329.4
99397.7
99494.3
99633
99834.8
100133
100582
101270
102343
104054
106841
111488
119427
133353
158538
205917
300431
508664
1.05852e+06
3.10226e+06
1.79872e+07
27087.9
71378.9
99971.8
116273
125035
129640
132060
133347
134047
134437
134660
134792
134873
134922
134955
134976
134990
135000
135008
135014
135019
135023
135028
135034
135041
135050
135061
135076
135097
135126
135167
135225
135309
135432
135618
135901
136343
137049
138207
140155
143532
149560
160674
181886
224028
312395
514670
1.06035e+06
3.10248e+06
1.79872e+07
47915.1
118603
157760
176973
185977
190171
192157
193125
193613
193870
194010
194090
194136
194165
194182
194194
194202
194207
194211
194214
194217
194219
194222
194225
194229
194233
194239
194247
194258
194274
194295
194326
194371
194437
194538
194695
194944
195351
196037
197231
199387
203432
211342
227492
262029
340007
530309
1.06585e+06
3.1032e+06
1.79872e+07
96112.1
214074
266516
287530
295780
299085
300466
301074
301357
301496
301569
301609
301631
301644
301653
301658
301661
301664
301666
301667
301668
301670
301671
301672
301674
301676
301679
301683
301688
301695
301704
301718
301739
301769
301815
301887
302004
302199
302535
303140
304280
306534
311243
321670
346213
407822
574731
1.08477e+06
3.10622e+06
1.79872e+07
228610
431006
496274
516081
522232
524267
524998
525285
525407
525464
525492
525507
525515
525520
525523
525525
525526
525527
525528
525528
525529
525529
525530
525531
525531
525532
525534
525535
525537
525540
525543
525549
525556
525567
525583
525609
525651
525722
525846
526077
526528
527466
529567
534666
548180
587437
712735
1.16002e+06
3.12319e+06
1.79872e+07
679411
1.01713e+06
1.08473e+06
1.09848e+06
1.10156e+06
1.10235e+06
1.10259e+06
1.10267e+06
1.1027e+06
1.10272e+06
1.10272e+06
1.10273e+06
1.10273e+06
1.10273e+06
1.10273e+06
1.10273e+06
1.10273e+06
1.10273e+06
1.10273e+06
1.10273e+06
1.10273e+06
1.10273e+06
1.10273e+06
1.10273e+06
1.10273e+06
1.10273e+06
1.10274e+06
1.10274e+06
1.10274e+06
1.10274e+06
1.10274e+06
1.10274e+06
1.10274e+06
1.10275e+06
1.10275e+06
1.10276e+06
1.10277e+06
1.10278e+06
1.10281e+06
1.10287e+06
1.10298e+06
1.10322e+06
1.10379e+06
1.10531e+06
1.10991e+06
1.12603e+06
1.19192e+06
1.50335e+06
3.24976e+06
1.79872e+07
2.70012e+06
3.18574e+06
3.23008e+06
3.23475e+06
3.23538e+06
3.23549e+06
3.23552e+06
3.23553e+06
3.23554e+06
3.23554e+06
3.23554e+06
3.23554e+06
3.23554e+06
3.23554e+06
3.23554e+06
3.23554e+06
3.23554e+06
3.23554e+06
3.23554e+06
3.23554e+06
3.23554e+06
3.23554e+06
3.23554e+06
3.23554e+06
3.23555e+06
3.23555e+06
3.23555e+06
3.23555e+06
3.23555e+06
3.23555e+06
3.23555e+06
3.23555e+06
3.23555e+06
3.23556e+06
3.23556e+06
3.23556e+06
3.23556e+06
3.23557e+06
3.23557e+06
3.23558e+06
3.23559e+06
3.23562e+06
3.23569e+06
3.23586e+06
3.23645e+06
3.23893e+06
3.25307e+06
3.36212e+06
4.43128e+06
1.79872e+07
1.87595e+07
1.87595e+07
1.87595e+07
1.87595e+07
1.87595e+07
1.87595e+07
1.87595e+07
1.87595e+07
1.87595e+07
1.87595e+07
1.87595e+07
1.87595e+07
1.87595e+07
1.87595e+07
1.87595e+07
1.87595e+07
1.87595e+07
1.87595e+07
1.87595e+07
1.87595e+07
1.87595e+07
1.87595e+07
1.87595e+07
1.87595e+07
1.87595e+07
1.87595e+07
1.87595e+07
1.87595e+07
1.87595e+07
1.87595e+07
1.87595e+07
1.87595e+07
1.87595e+07
1.87595e+07
1.87595e+07
1.87595e+07
1.87595e+07
1.87595e+07
1.87595e+07
1.87595e+07
1.87595e+07
1.87595e+07
1.87595e+07
1.87595e+07
1.87595e+07
1.87595e+07
1.87595e+07
1.87595e+07
1.87595e+07
1.87595e+07
6.66858e+07
6.23527e+07
6.89194e+07
6.47128e+07
6.78283e+07
7.15653e+07
6.49603e+07
6.94369e+07
6.75245e+07
6.75768e+07
6.76664e+07
6.76862e+07
6.76851e+07
6.34603e+07
7.03109e+07
5.78469e+07
6.73925e+07
6.76901e+07
6.71694e+07
6.76632e+07
3.13906e+06
3.2216e+06
3.37134e+06
3.24726e+06
3.28723e+06
3.33847e+06
3.26327e+06
3.33328e+06
3.3154e+06
3.32137e+06
3.32404e+06
3.32387e+06
3.31522e+06
3.28458e+06
3.39669e+06
3.17982e+06
3.38188e+06
3.31944e+06
3.3128e+06
3.25409e+06
1.42475e+07
8.11354e+06
1.60069e+07
1.36739e+07
1.29906e+07
1.39957e+07
1.1566e+07
1.17863e+07
1.19397e+07
1.19529e+07
1.19524e+07
1.19542e+07
1.17635e+07
1.15885e+07
1.32866e+07
8.02311e+06
1.21817e+07
1.20901e+07
1.17068e+07
1.19073e+07
1.87595e+07
1.87595e+07
1.87595e+07
1.87595e+07
1.87595e+07
1.87595e+07
1.87595e+07
1.87595e+07
1.87595e+07
1.87595e+07
1.87595e+07
1.87595e+07
1.87595e+07
1.87595e+07
1.87595e+07
1.87595e+07
1.87595e+07
1.87595e+07
1.87595e+07
1.87595e+07
1.87595e+07
1.87595e+07
1.87595e+07
1.87595e+07
1.87595e+07
1.87595e+07
1.87595e+07
1.87595e+07
1.87595e+07
1.87595e+07
1.87595e+07
1.87595e+07
1.87595e+07
1.87595e+07
1.87595e+07
1.87595e+07
1.87595e+07
1.87595e+07
1.87595e+07
1.87595e+07
1.87595e+07
1.87595e+07
1.87595e+07
1.87595e+07
1.87595e+07
1.87595e+07
1.87595e+07
1.87595e+07
1.87595e+07
1.87595e+07
1.87595e+07
1.87595e+07
1.87595e+07
1.87595e+07
1.87595e+07
1.87595e+07
1.87595e+07
1.87595e+07
1.87595e+07
1.87595e+07
1.87595e+07
1.87595e+07
1.87595e+07
1.87595e+07
1.87595e+07
1.87595e+07
1.87595e+07
1.87595e+07
1.87595e+07
1.87595e+07
1.87595e+07
1.87595e+07
1.87595e+07
1.87595e+07
1.87595e+07
1.87595e+07
1.87595e+07
1.87595e+07
1.87595e+07
1.87595e+07
1.87595e+07
1.87595e+07
1.87595e+07
1.87595e+07
1.87595e+07
1.87595e+07
1.87595e+07
1.87595e+07
1.87595e+07
1.87595e+07
1.87595e+07
1.87595e+07
1.87595e+07
1.87595e+07
1.87595e+07
1.87595e+07
1.87595e+07
1.87595e+07
1.87595e+07
1.87595e+07
1.79872e+07
4.43128e+06
3.36208e+06
3.25302e+06
3.23888e+06
3.2364e+06
3.23582e+06
3.23564e+06
3.23558e+06
3.23555e+06
3.23554e+06
3.23554e+06
3.23554e+06
3.23554e+06
3.23553e+06
3.23553e+06
3.23553e+06
3.23554e+06
3.23554e+06
3.23554e+06
3.23554e+06
3.23554e+06
3.23554e+06
3.23554e+06
3.23554e+06
3.23554e+06
3.23554e+06
3.23554e+06
3.23554e+06
3.23554e+06
3.23554e+06
3.23554e+06
3.23554e+06
3.23554e+06
3.23554e+06
3.23554e+06
3.23554e+06
3.23554e+06
3.23554e+06
3.23554e+06
3.23554e+06
3.23554e+06
3.23554e+06
3.23554e+06
3.23554e+06
3.23554e+06
3.23554e+06
3.23554e+06
3.23554e+06
3.23554e+06
3.23554e+06
3.23554e+06
3.23554e+06
3.23554e+06
3.23554e+06
3.23554e+06
3.23554e+06
3.23554e+06
3.23554e+06
3.23554e+06
3.23554e+06
3.23554e+06
3.23554e+06
3.23554e+06
3.23554e+06
3.23554e+06
3.23554e+06
3.23554e+06
3.23554e+06
3.23554e+06
3.23554e+06
3.23554e+06
3.23554e+06
3.23554e+06
3.23554e+06
3.23554e+06
3.23554e+06
3.23554e+06
3.23554e+06
3.23554e+06
3.23554e+06
3.23554e+06
3.23554e+06
3.23554e+06
3.23554e+06
3.23554e+06
3.23554e+06
3.23554e+06
3.23554e+06
3.23554e+06
3.23554e+06
3.23554e+06
3.23554e+06
3.23554e+06
3.23554e+06
3.23554e+06
3.23554e+06
3.23554e+06
3.23554e+06
3.23554e+06
1.79872e+07
3.2498e+06
1.50335e+06
1.1919e+06
1.12601e+06
1.10988e+06
1.10528e+06
1.10377e+06
1.10319e+06
1.10296e+06
1.10285e+06
1.10279e+06
1.10276e+06
1.10275e+06
1.10274e+06
1.10274e+06
1.10273e+06
1.10273e+06
1.10273e+06
1.10273e+06
1.10273e+06
1.10273e+06
1.10273e+06
1.10273e+06
1.10273e+06
1.10273e+06
1.10273e+06
1.10273e+06
1.10273e+06
1.10273e+06
1.10273e+06
1.10273e+06
1.10273e+06
1.10273e+06
1.10273e+06
1.10273e+06
1.10273e+06
1.10273e+06
1.10273e+06
1.10273e+06
1.10273e+06
1.10273e+06
1.10273e+06
1.10273e+06
1.10273e+06
1.10273e+06
1.10273e+06
1.10273e+06
1.10273e+06
1.10273e+06
1.10273e+06
1.10273e+06
1.10273e+06
1.10273e+06
1.10273e+06
1.10273e+06
1.10273e+06
1.10273e+06
1.10273e+06
1.10273e+06
1.10273e+06
1.10273e+06
1.10273e+06
1.10273e+06
1.10273e+06
1.10273e+06
1.10273e+06
1.10273e+06
1.10273e+06
1.10273e+06
1.10273e+06
1.10273e+06
1.10273e+06
1.10273e+06
1.10273e+06
1.10273e+06
1.10273e+06
1.10273e+06
1.10273e+06
1.10273e+06
1.10273e+06
1.10273e+06
1.10273e+06
1.10273e+06
1.10273e+06
1.10273e+06
1.10273e+06
1.10273e+06
1.10273e+06
1.10273e+06
1.10273e+06
1.10273e+06
1.10273e+06
1.10273e+06
1.10273e+06
1.10273e+06
1.10273e+06
1.10273e+06
1.10273e+06
1.10273e+06
1.79872e+07
3.12325e+06
1.16004e+06
712736
587424
548160
534643
529543
527443
526505
526056
525827
525704
525635
525595
525571
525556
525547
525541
525537
525534
525533
525531
525531
525530
525530
525529
525529
525529
525529
525529
525529
525528
525528
525528
525528
525528
525528
525528
525528
525528
525528
525528
525528
525528
525528
525528
525528
525528
525528
525528
525528
525528
525528
525528
525528
525527
525527
525527
525527
525527
525527
525527
525527
525527
525527
525527
525527
525527
525527
525527
525527
525527
525527
525527
525527
525527
525527
525527
525527
525527
525527
525527
525527
525527
525527
525527
525527
525527
525527
525527
525527
525527
525527
525527
525527
525527
525527
525527
525527
1.79872e+07
3.10628e+06
1.08481e+06
574747
407824
346205
321656
311226
306516
304262
303124
302521
302186
301994
301879
301809
301765
301737
301718
301705
301697
301691
301686
301683
301680
301679
301677
301676
301675
301674
301673
301673
301672
301672
301671
301671
301671
301671
301670
301670
301670
301670
301670
301670
301670
301669
301669
301669
301669
301669
301669
301668
301668
301668
301668
301668
301668
301668
301668
301667
301667
301667
301667
301667
301667
301667
301667
301667
301667
301667
301667
301667
301667
301667
301667
301667
301667
301667
301667
301667
301667
301667
301667
301667
301667
301667
301667
301667
301667
301667
301667
301667
301667
301667
301667
301667
301667
301667
301667
301667
1.79872e+07
3.10326e+06
1.06588e+06
530335
340022
262033
227489
211334
203422
199377
197223
196031
195348
194945
194699
194545
194447
194383
194340
194311
194291
194276
194265
194257
194251
194246
194242
194238
194235
194233
194231
194230
194228
194227
194226
194225
194225
194224
194223
194223
194223
194222
194222
194222
194221
194221
194221
194220
194220
194220
194219
194219
194219
194218
194218
194218
194217
194217
194217
194217
194217
194216
194216
194216
194216
194216
194216
194216
194216
194216
194216
194216
194216
194216
194216
194216
194216
194216
194216
194216
194216
194216
194216
194216
194216
194216
194216
194216
194216
194216
194216
194216
194216
194216
194216
194216
194216
194216
194216
194216
1.79872e+07
3.10255e+06
1.0604e+06
514703
312420
224043
181895
160679
149563
143535
140162
138217
137064
136363
135926
135648
135467
135347
135266
135210
135170
135141
135120
135103
135090
135080
135071
135064
135058
135053
135049
135046
135043
135040
135038
135036
135035
135033
135032
135031
135031
135030
135029
135029
135028
135027
135027
135026
135025
135025
135024
135024
135023
135023
135022
135021
135021
135021
135020
135020
135020
135019
135019
135019
135019
135019
135019
135019
135019
135019
135019
135019
135019
135019
135019
135019
135019
135019
135019
135019
135019
135019
135019
135019
135019
135019
135019
135019
135019
135019
135019
135019
135019
135019
135019
135019
135019
135019
135019
135019
1.79872e+07
3.10233e+06
1.05856e+06
508703
300464
205943
158559
133371
119446
111510
106869
104089
102386
101322
100643
100203
99911.1
99714.8
99580
99485.5
99417.8
99368
99330.3
99301.1
99277.8
99258.9
99243.2
99230.1
99219
99209.6
99201.7
99195
99189.4
99184.7
99180.8
99177.5
99174.8
99172.5
99170.6
99168.9
99167.5
99166.2
99165
99163.9
99162.8
99161.7
99160.7
99159.7
99158.7
99157.7
99156.7
99155.8
99154.8
99154
99153.2
99152.4
99151.7
99151.1
99150.6
99150.1
99149.7
99149.3
99149
99148.8
99148.6
99148.4
99148.3
99148.2
99148.1
99148
99148
99147.9
99147.9
99147.9
99147.9
99147.9
99147.9
99147.9
99147.9
99147.9
99147.9
99147.9
99147.9
99148
99148
99148
99148.1
99148.1
99148.2
99148.3
99148.3
99148.4
99148.5
99148.6
99148.7
99148.8
99149
99149
99149.1
99149.1
1.79872e+07