/*--------------------------------*- C++ -*----------------------------------*\
| =========                 |                                                 |
| \\      /  F ield         | foam-extend: Open Source CFD                    |
|  \\    /   O peration     | Version:     4.0                                |
|   \\  /    A nd           | Web:         http://www.foam-extend.org         |
|    \\/     M anipulation  |                                                 |
\*---------------------------------------------------------------------------*/
FoamFile
{
    version     2.0;
    format      ascii;
    class       volScalarField;
    location    "0.0011";
    object      pd;
}
// * * * * * * * * * * * * * * * * * * * * * * * * * * * * * * * * * * * * * //

dimensions      [1 -1 -2 0 0 0 0];

internalField   nonuniform List<scalar> 
28770
(
2.99823e+07
2.9947e+07
2.99116e+07
2.98763e+07
2.9841e+07
2.98057e+07
2.97704e+07
2.97352e+07
2.97e+07
2.96648e+07
2.96297e+07
2.95947e+07
2.95597e+07
2.95248e+07
2.94899e+07
2.94552e+07
2.94206e+07
2.93861e+07
2.93517e+07
2.93175e+07
2.92835e+07
2.92497e+07
2.92162e+07
2.91829e+07
2.91499e+07
2.91172e+07
2.90849e+07
2.9053e+07
2.90216e+07
2.89907e+07
2.89604e+07
2.89307e+07
2.89018e+07
2.88736e+07
2.88463e+07
2.88201e+07
2.87948e+07
2.87707e+07
2.87479e+07
2.87265e+07
2.87065e+07
2.86882e+07
2.86715e+07
2.86567e+07
2.86438e+07
2.86329e+07
2.8624e+07
2.86173e+07
2.86128e+07
2.86106e+07
2.99823e+07
2.9947e+07
2.99116e+07
2.98763e+07
2.9841e+07
2.98057e+07
2.97704e+07
2.97352e+07
2.96999e+07
2.96648e+07
2.96297e+07
2.95946e+07
2.95596e+07
2.95247e+07
2.94898e+07
2.94551e+07
2.94205e+07
2.93859e+07
2.93516e+07
2.93174e+07
2.92833e+07
2.92495e+07
2.92159e+07
2.91826e+07
2.91496e+07
2.91168e+07
2.90845e+07
2.90526e+07
2.90211e+07
2.89901e+07
2.89598e+07
2.893e+07
2.8901e+07
2.88728e+07
2.88454e+07
2.8819e+07
2.87937e+07
2.87695e+07
2.87466e+07
2.87251e+07
2.8705e+07
2.86866e+07
2.86698e+07
2.86549e+07
2.86419e+07
2.86309e+07
2.86219e+07
2.86152e+07
2.86107e+07
2.86084e+07
2.99823e+07
2.9947e+07
2.99116e+07
2.98763e+07
2.98409e+07
2.98056e+07
2.97703e+07
2.97351e+07
2.96999e+07
2.96647e+07
2.96295e+07
2.95945e+07
2.95594e+07
2.95245e+07
2.94896e+07
2.94549e+07
2.94202e+07
2.93857e+07
2.93513e+07
2.9317e+07
2.92829e+07
2.92491e+07
2.92154e+07
2.9182e+07
2.91489e+07
2.91161e+07
2.90837e+07
2.90517e+07
2.90201e+07
2.8989e+07
2.89585e+07
2.89287e+07
2.88995e+07
2.88711e+07
2.88436e+07
2.8817e+07
2.87915e+07
2.87671e+07
2.8744e+07
2.87222e+07
2.8702e+07
2.86833e+07
2.86663e+07
2.86512e+07
2.8638e+07
2.86269e+07
2.86178e+07
2.8611e+07
2.86064e+07
2.86041e+07
2.99823e+07
2.99469e+07
2.99116e+07
2.98762e+07
2.98409e+07
2.98056e+07
2.97703e+07
2.9735e+07
2.96997e+07
2.96645e+07
2.96294e+07
2.95943e+07
2.95592e+07
2.95243e+07
2.94894e+07
2.94546e+07
2.94198e+07
2.93853e+07
2.93508e+07
2.93165e+07
2.92824e+07
2.92484e+07
2.92147e+07
2.91812e+07
2.9148e+07
2.91151e+07
2.90825e+07
2.90503e+07
2.90186e+07
2.89874e+07
2.89567e+07
2.89266e+07
2.88972e+07
2.88686e+07
2.88408e+07
2.88139e+07
2.87881e+07
2.87635e+07
2.874e+07
2.8718e+07
2.86973e+07
2.86784e+07
2.86611e+07
2.86457e+07
2.86322e+07
2.86208e+07
2.86116e+07
2.86046e+07
2.85999e+07
2.85975e+07
2.99823e+07
2.99469e+07
2.99115e+07
2.98762e+07
2.98408e+07
2.98055e+07
2.97701e+07
2.97348e+07
2.96996e+07
2.96644e+07
2.96292e+07
2.9594e+07
2.9559e+07
2.95239e+07
2.9489e+07
2.94541e+07
2.94194e+07
2.93847e+07
2.93502e+07
2.93158e+07
2.92816e+07
2.92475e+07
2.92137e+07
2.91801e+07
2.91467e+07
2.91137e+07
2.90809e+07
2.90486e+07
2.90166e+07
2.89852e+07
2.89542e+07
2.89239e+07
2.88942e+07
2.88653e+07
2.88371e+07
2.88099e+07
2.87837e+07
2.87586e+07
2.87348e+07
2.87123e+07
2.86912e+07
2.86719e+07
2.86542e+07
2.86384e+07
2.86245e+07
2.86128e+07
2.86033e+07
2.85961e+07
2.85912e+07
2.85888e+07
2.99823e+07
2.99469e+07
2.99115e+07
2.98761e+07
2.98407e+07
2.98054e+07
2.977e+07
2.97347e+07
2.96994e+07
2.96641e+07
2.96289e+07
2.95937e+07
2.95586e+07
2.95235e+07
2.94885e+07
2.94536e+07
2.94188e+07
2.93841e+07
2.93495e+07
2.9315e+07
2.92806e+07
2.92465e+07
2.92125e+07
2.91787e+07
2.91452e+07
2.9112e+07
2.9079e+07
2.90464e+07
2.90142e+07
2.89825e+07
2.89512e+07
2.89205e+07
2.88904e+07
2.88611e+07
2.88325e+07
2.88049e+07
2.87781e+07
2.87526e+07
2.87281e+07
2.87052e+07
2.86835e+07
2.86636e+07
2.86453e+07
2.8629e+07
2.86147e+07
2.86026e+07
2.85927e+07
2.85852e+07
2.85801e+07
2.85776e+07
2.99823e+07
2.99469e+07
2.99114e+07
2.9876e+07
2.98406e+07
2.98052e+07
2.97698e+07
2.97345e+07
2.96992e+07
2.96639e+07
2.96286e+07
2.95934e+07
2.95582e+07
2.95231e+07
2.9488e+07
2.9453e+07
2.94181e+07
2.93833e+07
2.93486e+07
2.9314e+07
2.92795e+07
2.92452e+07
2.92111e+07
2.91771e+07
2.91434e+07
2.91099e+07
2.90768e+07
2.90439e+07
2.90114e+07
2.89793e+07
2.89477e+07
2.89166e+07
2.88861e+07
2.88563e+07
2.88271e+07
2.8799e+07
2.87716e+07
2.87455e+07
2.87203e+07
2.86967e+07
2.86744e+07
2.86538e+07
2.86348e+07
2.86179e+07
2.8603e+07
2.85903e+07
2.85799e+07
2.85721e+07
2.85668e+07
2.85641e+07
2.99823e+07
2.99468e+07
2.99114e+07
2.98759e+07
2.98405e+07
2.98051e+07
2.97697e+07
2.97343e+07
2.96989e+07
2.96636e+07
2.96283e+07
2.9593e+07
2.95578e+07
2.95226e+07
2.94874e+07
2.94524e+07
2.94174e+07
2.93824e+07
2.93476e+07
2.93129e+07
2.92783e+07
2.92438e+07
2.92095e+07
2.91753e+07
2.91414e+07
2.91077e+07
2.90742e+07
2.9041e+07
2.90081e+07
2.89757e+07
2.89436e+07
2.89121e+07
2.8881e+07
2.88506e+07
2.88208e+07
2.87921e+07
2.87639e+07
2.87371e+07
2.87111e+07
2.86867e+07
2.86635e+07
2.86421e+07
2.86223e+07
2.86046e+07
2.85889e+07
2.85756e+07
2.85647e+07
2.85564e+07
2.85508e+07
2.8548e+07
2.99823e+07
2.99468e+07
2.99113e+07
2.98758e+07
2.98404e+07
2.98049e+07
2.97695e+07
2.9734e+07
2.96986e+07
2.96632e+07
2.96279e+07
2.95926e+07
2.95573e+07
2.9522e+07
2.94868e+07
2.94516e+07
2.94165e+07
2.93815e+07
2.93465e+07
2.93117e+07
2.92769e+07
2.92422e+07
2.92077e+07
2.91733e+07
2.91391e+07
2.91051e+07
2.90713e+07
2.90378e+07
2.90045e+07
2.89717e+07
2.89391e+07
2.8907e+07
2.88753e+07
2.88444e+07
2.88139e+07
2.87844e+07
2.87554e+07
2.87277e+07
2.87009e+07
2.86755e+07
2.86513e+07
2.8629e+07
2.86082e+07
2.85895e+07
2.85729e+07
2.85588e+07
2.85472e+07
2.85383e+07
2.85323e+07
2.85293e+07
2.99822e+07
2.99467e+07
2.99112e+07
2.98757e+07
2.98402e+07
2.98047e+07
2.97693e+07
2.97338e+07
2.96983e+07
2.96629e+07
2.96275e+07
2.95921e+07
2.95567e+07
2.95214e+07
2.94861e+07
2.94508e+07
2.94156e+07
2.93805e+07
2.93454e+07
2.93103e+07
2.92754e+07
2.92405e+07
2.92058e+07
2.91712e+07
2.91367e+07
2.91024e+07
2.90682e+07
2.90343e+07
2.90006e+07
2.89672e+07
2.89341e+07
2.89015e+07
2.88691e+07
2.88375e+07
2.88061e+07
2.87758e+07
2.87458e+07
2.87172e+07
2.86891e+07
2.86628e+07
2.86372e+07
2.86138e+07
2.85917e+07
2.8572e+07
2.85543e+07
2.85392e+07
2.85267e+07
2.85172e+07
2.85108e+07
2.85075e+07
2.99822e+07
2.99467e+07
2.99111e+07
2.98756e+07
2.98401e+07
2.98045e+07
2.9769e+07
2.97335e+07
2.9698e+07
2.96625e+07
2.9627e+07
2.95916e+07
2.95562e+07
2.95207e+07
2.94853e+07
2.945e+07
2.94147e+07
2.93794e+07
2.93441e+07
2.93089e+07
2.92738e+07
2.92388e+07
2.92038e+07
2.91689e+07
2.91341e+07
2.90995e+07
2.90649e+07
2.90306e+07
2.89964e+07
2.89625e+07
2.89288e+07
2.88955e+07
2.88625e+07
2.883e+07
2.87978e+07
2.87665e+07
2.87355e+07
2.87058e+07
2.86766e+07
2.8649e+07
2.86222e+07
2.85973e+07
2.8574e+07
2.85528e+07
2.85338e+07
2.85175e+07
2.8504e+07
2.84936e+07
2.84865e+07
2.8483e+07
2.99822e+07
2.99466e+07
2.99111e+07
2.98755e+07
2.98399e+07
2.98044e+07
2.97688e+07
2.97332e+07
2.96977e+07
2.96621e+07
2.96266e+07
2.95911e+07
2.95556e+07
2.95201e+07
2.94846e+07
2.94491e+07
2.94137e+07
2.93782e+07
2.93428e+07
2.93075e+07
2.92722e+07
2.92369e+07
2.92017e+07
2.91665e+07
2.91314e+07
2.90964e+07
2.90615e+07
2.90267e+07
2.8992e+07
2.89576e+07
2.89232e+07
2.88892e+07
2.88553e+07
2.88221e+07
2.87887e+07
2.87565e+07
2.87241e+07
2.86934e+07
2.86623e+07
2.86336e+07
2.86049e+07
2.85786e+07
2.85534e+07
2.85307e+07
2.85101e+07
2.84924e+07
2.84776e+07
2.84663e+07
2.84585e+07
2.84546e+07
2.99822e+07
2.99466e+07
2.9911e+07
2.98754e+07
2.98398e+07
2.98042e+07
2.97686e+07
2.97329e+07
2.96973e+07
2.96617e+07
2.96261e+07
2.95906e+07
2.9555e+07
2.95194e+07
2.94838e+07
2.94482e+07
2.94126e+07
2.93771e+07
2.93415e+07
2.9306e+07
2.92705e+07
2.9235e+07
2.91995e+07
2.9164e+07
2.91286e+07
2.90932e+07
2.90579e+07
2.90227e+07
2.89874e+07
2.89524e+07
2.89174e+07
2.88827e+07
2.88479e+07
2.88137e+07
2.87794e+07
2.8746e+07
2.87125e+07
2.86802e+07
2.8648e+07
2.86174e+07
2.85872e+07
2.8559e+07
2.8532e+07
2.85073e+07
2.84848e+07
2.84653e+07
2.84489e+07
2.84362e+07
2.84275e+07
2.84231e+07
2.99822e+07
2.99465e+07
2.99109e+07
2.98753e+07
2.98396e+07
2.9804e+07
2.97683e+07
2.97327e+07
2.9697e+07
2.96614e+07
2.96257e+07
2.959e+07
2.95544e+07
2.95187e+07
2.9483e+07
2.94473e+07
2.94116e+07
2.93759e+07
2.93402e+07
2.93045e+07
2.92688e+07
2.9233e+07
2.91973e+07
2.91615e+07
2.91258e+07
2.909e+07
2.90542e+07
2.90185e+07
2.89827e+07
2.89471e+07
2.89113e+07
2.88759e+07
2.88401e+07
2.88051e+07
2.87694e+07
2.87351e+07
2.86996e+07
2.86664e+07
2.86315e+07
2.86e+07
2.85667e+07
2.85366e+07
2.85071e+07
2.84802e+07
2.84555e+07
2.84339e+07
2.84156e+07
2.84014e+07
2.83917e+07
2.83867e+07
2.99822e+07
2.99465e+07
2.99108e+07
2.98751e+07
2.98395e+07
2.98038e+07
2.97681e+07
2.97324e+07
2.96967e+07
2.9661e+07
2.96252e+07
2.95895e+07
2.95538e+07
2.9518e+07
2.94822e+07
2.94464e+07
2.94106e+07
2.93748e+07
2.93389e+07
2.9303e+07
2.92671e+07
2.92311e+07
2.91951e+07
2.9159e+07
2.91229e+07
2.90868e+07
2.90506e+07
2.90144e+07
2.8978e+07
2.89418e+07
2.89053e+07
2.8869e+07
2.88324e+07
2.87963e+07
2.87595e+07
2.87237e+07
2.8687e+07
2.86519e+07
2.86156e+07
2.85816e+07
2.8547e+07
2.85142e+07
2.84823e+07
2.84526e+07
2.84251e+07
2.84007e+07
2.838e+07
2.83636e+07
2.83523e+07
2.83465e+07
2.99821e+07
2.99464e+07
2.99107e+07
2.9875e+07
2.98393e+07
2.98036e+07
2.97678e+07
2.97321e+07
2.96963e+07
2.96606e+07
2.96248e+07
2.9589e+07
2.95532e+07
2.95173e+07
2.94814e+07
2.94455e+07
2.94096e+07
2.93736e+07
2.93376e+07
2.93015e+07
2.92654e+07
2.92292e+07
2.91929e+07
2.91566e+07
2.91201e+07
2.90836e+07
2.9047e+07
2.90103e+07
2.89734e+07
2.89365e+07
2.88992e+07
2.88622e+07
2.88245e+07
2.87874e+07
2.87492e+07
2.87123e+07
2.86734e+07
2.86373e+07
2.85973e+07
2.85633e+07
2.85245e+07
2.8503e+07
2.84683e+07
2.84355e+07
2.84049e+07
2.83773e+07
2.83535e+07
2.83342e+07
2.83203e+07
2.83123e+07
2.99821e+07
2.99464e+07
2.99107e+07
2.98749e+07
2.98392e+07
2.98034e+07
2.97676e+07
2.97318e+07
2.9696e+07
2.96602e+07
2.96244e+07
2.95885e+07
2.95526e+07
2.95167e+07
2.94807e+07
2.94447e+07
2.94086e+07
2.93725e+07
2.93363e+07
2.93001e+07
2.92638e+07
2.92274e+07
2.91908e+07
2.91542e+07
2.91175e+07
2.90806e+07
2.90435e+07
2.90063e+07
2.89689e+07
2.89313e+07
2.88934e+07
2.88555e+07
2.88169e+07
2.87786e+07
2.87393e+07
2.87008e+07
2.86605e+07
2.8622e+07
2.85807e+07
2.85432e+07
2.85039e+07
2.84782e+07
2.84402e+07
2.84037e+07
2.83692e+07
2.83376e+07
2.83101e+07
2.82875e+07
2.82709e+07
2.82613e+07
2.99821e+07
2.99463e+07
2.99106e+07
2.98748e+07
2.9839e+07
2.98032e+07
2.97674e+07
2.97316e+07
2.96957e+07
2.96599e+07
2.9624e+07
2.9588e+07
2.95521e+07
2.95161e+07
2.948e+07
2.94439e+07
2.94077e+07
2.93715e+07
2.93352e+07
2.92988e+07
2.92622e+07
2.92256e+07
2.91889e+07
2.9152e+07
2.91149e+07
2.90777e+07
2.90402e+07
2.90025e+07
2.89645e+07
2.89264e+07
2.88877e+07
2.8849e+07
2.88094e+07
2.87701e+07
2.87294e+07
2.86895e+07
2.86473e+07
2.86072e+07
2.85632e+07
2.85232e+07
2.84826e+07
2.84526e+07
2.84108e+07
2.837e+07
2.83308e+07
2.82942e+07
2.82619e+07
2.82349e+07
2.82148e+07
2.8203e+07
2.99821e+07
2.99463e+07
2.99105e+07
2.98747e+07
2.98389e+07
2.98031e+07
2.97672e+07
2.97314e+07
2.96955e+07
2.96595e+07
2.96236e+07
2.95876e+07
2.95516e+07
2.95155e+07
2.94794e+07
2.94432e+07
2.94069e+07
2.93705e+07
2.93341e+07
2.92975e+07
2.92608e+07
2.9224e+07
2.9187e+07
2.91499e+07
2.91125e+07
2.90749e+07
2.90371e+07
2.8999e+07
2.89605e+07
2.89217e+07
2.88824e+07
2.88428e+07
2.88024e+07
2.8762e+07
2.87202e+07
2.86786e+07
2.86351e+07
2.85925e+07
2.85467e+07
2.85032e+07
2.84613e+07
2.84267e+07
2.83808e+07
2.8335e+07
2.82901e+07
2.82405e+07
2.82004e+07
2.81662e+07
2.81404e+07
2.81255e+07
2.99821e+07
2.99463e+07
2.99104e+07
2.98746e+07
2.98388e+07
2.98029e+07
2.9767e+07
2.97311e+07
2.96952e+07
2.96593e+07
2.96233e+07
2.95872e+07
2.95511e+07
2.9515e+07
2.94788e+07
2.94425e+07
2.94061e+07
2.93697e+07
2.93331e+07
2.92964e+07
2.92596e+07
2.92226e+07
2.91854e+07
2.9148e+07
2.91103e+07
2.90725e+07
2.90342e+07
2.89957e+07
2.89567e+07
2.89175e+07
2.88775e+07
2.88372e+07
2.87959e+07
2.87544e+07
2.87114e+07
2.86685e+07
2.86233e+07
2.85787e+07
2.85307e+07
2.8484e+07
2.84404e+07
2.84012e+07
2.83506e+07
2.82993e+07
2.82479e+07
2.81891e+07
2.81395e+07
2.80963e+07
2.80631e+07
2.80438e+07
2.99821e+07
2.99462e+07
2.99104e+07
2.98745e+07
2.98387e+07
2.98028e+07
2.97669e+07
2.9731e+07
2.9695e+07
2.9659e+07
2.9623e+07
2.95869e+07
2.95508e+07
2.95146e+07
2.94783e+07
2.94419e+07
2.94055e+07
2.93689e+07
2.93322e+07
2.92954e+07
2.92584e+07
2.92213e+07
2.91839e+07
2.91463e+07
2.91084e+07
2.90703e+07
2.90317e+07
2.89929e+07
2.89535e+07
2.89137e+07
2.88731e+07
2.88322e+07
2.87902e+07
2.87477e+07
2.87037e+07
2.86593e+07
2.86128e+07
2.8566e+07
2.85161e+07
2.84662e+07
2.84209e+07
2.83767e+07
2.83211e+07
2.82637e+07
2.82048e+07
2.81347e+07
2.80734e+07
2.80177e+07
2.79728e+07
2.79458e+07
2.99821e+07
2.99462e+07
2.99104e+07
2.98745e+07
2.98386e+07
2.98027e+07
2.97668e+07
2.97308e+07
2.96948e+07
2.96588e+07
2.96227e+07
2.95866e+07
2.95504e+07
2.95142e+07
2.94779e+07
2.94414e+07
2.94049e+07
2.93683e+07
2.93315e+07
2.92946e+07
2.92575e+07
2.92202e+07
2.91827e+07
2.91449e+07
2.91068e+07
2.90684e+07
2.90296e+07
2.89904e+07
2.89507e+07
2.89105e+07
2.88694e+07
2.88279e+07
2.87852e+07
2.87419e+07
2.86969e+07
2.86514e+07
2.86035e+07
2.85549e+07
2.8503e+07
2.84503e+07
2.84035e+07
2.83541e+07
2.82935e+07
2.82295e+07
2.81622e+07
2.80792e+07
2.80033e+07
2.79297e+07
2.78654e+07
2.78242e+07
2.99821e+07
2.99462e+07
2.99103e+07
2.98744e+07
2.98385e+07
2.98026e+07
2.97667e+07
2.97307e+07
2.96947e+07
2.96586e+07
2.96225e+07
2.95864e+07
2.95502e+07
2.95139e+07
2.94775e+07
2.9441e+07
2.94045e+07
2.93678e+07
2.93309e+07
2.92939e+07
2.92567e+07
2.92193e+07
2.91817e+07
2.91438e+07
2.91055e+07
2.90669e+07
2.90279e+07
2.89885e+07
2.89484e+07
2.89079e+07
2.88665e+07
2.88244e+07
2.87812e+07
2.87372e+07
2.86915e+07
2.86449e+07
2.85959e+07
2.85457e+07
2.84923e+07
2.8437e+07
2.8389e+07
2.83345e+07
2.8269e+07
2.81986e+07
2.81226e+07
2.80257e+07
2.79322e+07
2.78342e+07
2.77408e+07
2.76577e+07
2.99821e+07
2.99462e+07
2.99103e+07
2.98744e+07
2.98385e+07
2.98025e+07
2.97666e+07
2.97306e+07
2.96946e+07
2.96585e+07
2.96224e+07
2.95862e+07
2.955e+07
2.95137e+07
2.94773e+07
2.94408e+07
2.94041e+07
2.93674e+07
2.93305e+07
2.92934e+07
2.92562e+07
2.92187e+07
2.9181e+07
2.91429e+07
2.91046e+07
2.90659e+07
2.90267e+07
2.89871e+07
2.89468e+07
2.8906e+07
2.88643e+07
2.88218e+07
2.87782e+07
2.87337e+07
2.86874e+07
2.864e+07
2.85902e+07
2.85388e+07
2.84841e+07
2.8427e+07
2.83784e+07
2.83188e+07
2.82492e+07
2.81731e+07
2.8089e+07
2.79788e+07
2.78666e+07
2.77381e+07
2.75911e+07
2.74397e+07
2.99821e+07
2.99462e+07
2.99103e+07
2.98744e+07
2.98384e+07
2.98025e+07
2.97665e+07
2.97305e+07
2.96945e+07
2.96584e+07
2.96223e+07
2.95861e+07
2.95499e+07
2.95135e+07
2.94771e+07
2.94406e+07
2.94039e+07
2.93672e+07
2.93302e+07
2.92931e+07
2.92558e+07
2.92183e+07
2.91805e+07
2.91424e+07
2.9104e+07
2.90652e+07
2.90259e+07
2.89862e+07
2.89458e+07
2.89048e+07
2.88629e+07
2.88203e+07
2.87764e+07
2.87315e+07
2.86849e+07
2.8637e+07
2.85867e+07
2.85345e+07
2.8479e+07
2.84206e+07
2.83721e+07
2.83081e+07
2.82356e+07
2.81553e+07
2.8065e+07
2.79447e+07
2.78169e+07
2.76601e+07
2.74653e+07
2.71781e+07
2.99821e+07
2.99462e+07
2.99103e+07
2.98744e+07
2.98384e+07
2.98025e+07
2.97665e+07
2.97305e+07
2.96945e+07
2.96584e+07
2.96223e+07
2.95861e+07
2.95498e+07
2.95135e+07
2.94771e+07
2.94405e+07
2.94039e+07
2.93671e+07
2.93302e+07
2.9293e+07
2.92557e+07
2.92182e+07
2.91804e+07
2.91423e+07
2.91038e+07
2.9065e+07
2.90257e+07
2.89859e+07
2.89454e+07
2.89044e+07
2.88624e+07
2.88197e+07
2.87757e+07
2.87308e+07
2.8684e+07
2.8636e+07
2.85854e+07
2.8533e+07
2.84772e+07
2.84184e+07
2.83708e+07
2.83033e+07
2.82294e+07
2.81471e+07
2.80538e+07
2.79296e+07
2.7795e+07
2.76248e+07
2.74101e+07
2.70819e+07
2.99821e+07
2.99462e+07
2.99103e+07
2.98744e+07
2.98384e+07
2.98025e+07
2.97665e+07
2.97305e+07
2.96945e+07
2.96584e+07
2.96223e+07
2.95861e+07
2.95499e+07
2.95135e+07
2.94771e+07
2.94406e+07
2.94039e+07
2.93672e+07
2.93302e+07
2.92931e+07
2.92558e+07
2.92183e+07
2.91805e+07
2.91424e+07
2.9104e+07
2.90652e+07
2.90259e+07
2.89862e+07
2.89458e+07
2.89048e+07
2.88629e+07
2.88203e+07
2.87764e+07
2.87315e+07
2.86849e+07
2.8637e+07
2.85867e+07
2.85345e+07
2.8479e+07
2.84206e+07
2.83746e+07
2.8305e+07
2.82315e+07
2.81499e+07
2.80576e+07
2.79371e+07
2.78077e+07
2.76462e+07
2.74522e+07
2.71483e+07
2.99821e+07
2.99462e+07
2.99103e+07
2.98744e+07
2.98385e+07
2.98025e+07
2.97666e+07
2.97306e+07
2.96946e+07
2.96585e+07
2.96224e+07
2.95862e+07
2.955e+07
2.95137e+07
2.94773e+07
2.94408e+07
2.94041e+07
2.93674e+07
2.93305e+07
2.92934e+07
2.92562e+07
2.92187e+07
2.9181e+07
2.91429e+07
2.91046e+07
2.90659e+07
2.90267e+07
2.89871e+07
2.89468e+07
2.8906e+07
2.88643e+07
2.88218e+07
2.87782e+07
2.87337e+07
2.86874e+07
2.864e+07
2.85902e+07
2.85388e+07
2.84841e+07
2.8427e+07
2.83832e+07
2.83129e+07
2.82417e+07
2.81633e+07
2.80757e+07
2.79653e+07
2.78508e+07
2.77158e+07
2.75736e+07
2.73963e+07
2.99821e+07
2.99462e+07
2.99103e+07
2.98744e+07
2.98385e+07
2.98026e+07
2.97667e+07
2.97307e+07
2.96947e+07
2.96586e+07
2.96225e+07
2.95864e+07
2.95502e+07
2.95139e+07
2.94775e+07
2.9441e+07
2.94045e+07
2.93678e+07
2.93309e+07
2.92939e+07
2.92567e+07
2.92193e+07
2.91817e+07
2.91438e+07
2.91055e+07
2.90669e+07
2.90279e+07
2.89885e+07
2.89484e+07
2.89079e+07
2.88665e+07
2.88244e+07
2.87812e+07
2.87372e+07
2.86915e+07
2.86449e+07
2.85959e+07
2.85457e+07
2.84923e+07
2.8437e+07
2.83958e+07
2.83263e+07
2.82587e+07
2.81853e+07
2.81049e+07
2.80082e+07
2.7913e+07
2.78093e+07
2.77171e+07
2.76331e+07
2.99821e+07
2.99462e+07
2.99104e+07
2.98745e+07
2.98386e+07
2.98027e+07
2.97668e+07
2.97308e+07
2.96948e+07
2.96588e+07
2.96227e+07
2.95866e+07
2.95504e+07
2.95142e+07
2.94779e+07
2.94414e+07
2.94049e+07
2.93683e+07
2.93315e+07
2.92946e+07
2.92575e+07
2.92202e+07
2.91827e+07
2.91449e+07
2.91068e+07
2.90684e+07
2.90296e+07
2.89904e+07
2.89507e+07
2.89105e+07
2.88694e+07
2.88279e+07
2.87852e+07
2.87419e+07
2.86969e+07
2.86514e+07
2.86035e+07
2.85549e+07
2.8503e+07
2.84503e+07
2.84118e+07
2.83441e+07
2.82811e+07
2.82138e+07
2.8142e+07
2.80599e+07
2.79832e+07
2.79062e+07
2.78366e+07
2.77894e+07
2.99821e+07
2.99462e+07
2.99104e+07
2.98745e+07
2.98387e+07
2.98028e+07
2.97669e+07
2.9731e+07
2.9695e+07
2.9659e+07
2.9623e+07
2.95869e+07
2.95508e+07
2.95146e+07
2.94783e+07
2.94419e+07
2.94055e+07
2.93689e+07
2.93322e+07
2.92954e+07
2.92584e+07
2.92213e+07
2.91839e+07
2.91463e+07
2.91084e+07
2.90703e+07
2.90317e+07
2.89929e+07
2.89535e+07
2.89137e+07
2.88731e+07
2.88322e+07
2.87902e+07
2.87477e+07
2.87037e+07
2.86593e+07
2.86128e+07
2.8566e+07
2.85161e+07
2.84662e+07
2.84304e+07
2.83654e+07
2.83074e+07
2.82467e+07
2.81835e+07
2.81149e+07
2.80538e+07
2.7996e+07
2.79479e+07
2.79181e+07
2.99821e+07
2.99463e+07
2.99104e+07
2.98746e+07
2.98388e+07
2.98029e+07
2.9767e+07
2.97311e+07
2.96952e+07
2.96593e+07
2.96233e+07
2.95872e+07
2.95511e+07
2.9515e+07
2.94788e+07
2.94425e+07
2.94061e+07
2.93697e+07
2.93331e+07
2.92964e+07
2.92596e+07
2.92226e+07
2.91854e+07
2.9148e+07
2.91103e+07
2.90725e+07
2.90342e+07
2.89957e+07
2.89567e+07
2.89175e+07
2.88775e+07
2.88372e+07
2.87959e+07
2.87544e+07
2.87114e+07
2.86685e+07
2.86233e+07
2.85787e+07
2.85307e+07
2.8484e+07
2.84509e+07
2.8389e+07
2.8336e+07
2.82817e+07
2.82266e+07
2.81697e+07
2.81207e+07
2.80766e+07
2.80416e+07
2.8021e+07
2.99821e+07
2.99463e+07
2.99105e+07
2.98747e+07
2.98389e+07
2.98031e+07
2.97672e+07
2.97314e+07
2.96955e+07
2.96595e+07
2.96236e+07
2.95876e+07
2.95516e+07
2.95155e+07
2.94794e+07
2.94432e+07
2.94069e+07
2.93705e+07
2.93341e+07
2.92975e+07
2.92608e+07
2.9224e+07
2.9187e+07
2.91499e+07
2.91125e+07
2.90749e+07
2.90371e+07
2.8999e+07
2.89605e+07
2.89217e+07
2.88824e+07
2.88428e+07
2.88024e+07
2.8762e+07
2.87202e+07
2.86786e+07
2.86351e+07
2.85925e+07
2.85467e+07
2.85032e+07
2.84725e+07
2.84138e+07
2.83658e+07
2.83175e+07
2.82695e+07
2.82224e+07
2.81825e+07
2.81478e+07
2.81213e+07
2.8106e+07
2.99821e+07
2.99463e+07
2.99106e+07
2.98748e+07
2.9839e+07
2.98032e+07
2.97674e+07
2.97316e+07
2.96957e+07
2.96599e+07
2.9624e+07
2.9588e+07
2.95521e+07
2.95161e+07
2.948e+07
2.94439e+07
2.94077e+07
2.93715e+07
2.93352e+07
2.92988e+07
2.92622e+07
2.92256e+07
2.91889e+07
2.9152e+07
2.91149e+07
2.90777e+07
2.90402e+07
2.90025e+07
2.89645e+07
2.89264e+07
2.88877e+07
2.8849e+07
2.88094e+07
2.87701e+07
2.87294e+07
2.86895e+07
2.86473e+07
2.86072e+07
2.85632e+07
2.85232e+07
2.84948e+07
2.8439e+07
2.83955e+07
2.83526e+07
2.83113e+07
2.82731e+07
2.82373e+07
2.82069e+07
2.8184e+07
2.81707e+07
2.99821e+07
2.99464e+07
2.99107e+07
2.98749e+07
2.98392e+07
2.98034e+07
2.97676e+07
2.97318e+07
2.9696e+07
2.96602e+07
2.96244e+07
2.95885e+07
2.95526e+07
2.95167e+07
2.94807e+07
2.94447e+07
2.94086e+07
2.93725e+07
2.93363e+07
2.93001e+07
2.92638e+07
2.92274e+07
2.91908e+07
2.91542e+07
2.91175e+07
2.90806e+07
2.90435e+07
2.90063e+07
2.89689e+07
2.89313e+07
2.88934e+07
2.88555e+07
2.88169e+07
2.87786e+07
2.87393e+07
2.87008e+07
2.86605e+07
2.8622e+07
2.85807e+07
2.85432e+07
2.85171e+07
2.84638e+07
2.84244e+07
2.83862e+07
2.83499e+07
2.83165e+07
2.82867e+07
2.82619e+07
2.82437e+07
2.82332e+07
2.99821e+07
2.99464e+07
2.99107e+07
2.9875e+07
2.98393e+07
2.98036e+07
2.97678e+07
2.97321e+07
2.96963e+07
2.96606e+07
2.96248e+07
2.9589e+07
2.95532e+07
2.95173e+07
2.94814e+07
2.94455e+07
2.94096e+07
2.93736e+07
2.93376e+07
2.93015e+07
2.92654e+07
2.92292e+07
2.91929e+07
2.91566e+07
2.91201e+07
2.90836e+07
2.9047e+07
2.90103e+07
2.89734e+07
2.89365e+07
2.88992e+07
2.88622e+07
2.88245e+07
2.87874e+07
2.87492e+07
2.87123e+07
2.86734e+07
2.86373e+07
2.85973e+07
2.85633e+07
2.8539e+07
2.84877e+07
2.84519e+07
2.84176e+07
2.83856e+07
2.83565e+07
2.83312e+07
2.83106e+07
2.82958e+07
2.82875e+07
2.99822e+07
2.99465e+07
2.99108e+07
2.98751e+07
2.98395e+07
2.98038e+07
2.97681e+07
2.97324e+07
2.96967e+07
2.9661e+07
2.96252e+07
2.95895e+07
2.95538e+07
2.9518e+07
2.94822e+07
2.94464e+07
2.94106e+07
2.93748e+07
2.93389e+07
2.9303e+07
2.92671e+07
2.92311e+07
2.91951e+07
2.9159e+07
2.91229e+07
2.90868e+07
2.90506e+07
2.90144e+07
2.8978e+07
2.89418e+07
2.89053e+07
2.8869e+07
2.88324e+07
2.87963e+07
2.87595e+07
2.87237e+07
2.8687e+07
2.86519e+07
2.86156e+07
2.85816e+07
2.8547e+07
2.85142e+07
2.84823e+07
2.84526e+07
2.84251e+07
2.84007e+07
2.838e+07
2.83636e+07
2.83523e+07
2.83465e+07
2.99822e+07
2.99465e+07
2.99109e+07
2.98753e+07
2.98396e+07
2.9804e+07
2.97683e+07
2.97327e+07
2.9697e+07
2.96614e+07
2.96257e+07
2.959e+07
2.95544e+07
2.95187e+07
2.9483e+07
2.94473e+07
2.94116e+07
2.93759e+07
2.93402e+07
2.93045e+07
2.92688e+07
2.9233e+07
2.91973e+07
2.91615e+07
2.91258e+07
2.909e+07
2.90542e+07
2.90185e+07
2.89827e+07
2.89471e+07
2.89113e+07
2.88759e+07
2.88401e+07
2.88051e+07
2.87694e+07
2.87351e+07
2.86996e+07
2.86664e+07
2.86315e+07
2.86e+07
2.85667e+07
2.85366e+07
2.85071e+07
2.84802e+07
2.84555e+07
2.84339e+07
2.84156e+07
2.84014e+07
2.83917e+07
2.83867e+07
2.99822e+07
2.99466e+07
2.9911e+07
2.98754e+07
2.98398e+07
2.98042e+07
2.97686e+07
2.97329e+07
2.96973e+07
2.96617e+07
2.96261e+07
2.95906e+07
2.9555e+07
2.95194e+07
2.94838e+07
2.94482e+07
2.94126e+07
2.93771e+07
2.93415e+07
2.9306e+07
2.92705e+07
2.9235e+07
2.91995e+07
2.9164e+07
2.91286e+07
2.90932e+07
2.90579e+07
2.90227e+07
2.89874e+07
2.89524e+07
2.89174e+07
2.88827e+07
2.88479e+07
2.88137e+07
2.87794e+07
2.8746e+07
2.87125e+07
2.86802e+07
2.8648e+07
2.86174e+07
2.85872e+07
2.8559e+07
2.8532e+07
2.85073e+07
2.84848e+07
2.84653e+07
2.84489e+07
2.84362e+07
2.84275e+07
2.84231e+07
2.99822e+07
2.99466e+07
2.99111e+07
2.98755e+07
2.98399e+07
2.98044e+07
2.97688e+07
2.97332e+07
2.96977e+07
2.96621e+07
2.96266e+07
2.95911e+07
2.95556e+07
2.95201e+07
2.94846e+07
2.94491e+07
2.94137e+07
2.93782e+07
2.93428e+07
2.93075e+07
2.92722e+07
2.92369e+07
2.92017e+07
2.91665e+07
2.91314e+07
2.90964e+07
2.90615e+07
2.90267e+07
2.8992e+07
2.89576e+07
2.89232e+07
2.88892e+07
2.88553e+07
2.88221e+07
2.87887e+07
2.87565e+07
2.87241e+07
2.86934e+07
2.86623e+07
2.86336e+07
2.86049e+07
2.85786e+07
2.85534e+07
2.85307e+07
2.85101e+07
2.84924e+07
2.84776e+07
2.84663e+07
2.84585e+07
2.84546e+07
2.99822e+07
2.99467e+07
2.99111e+07
2.98756e+07
2.98401e+07
2.98045e+07
2.9769e+07
2.97335e+07
2.9698e+07
2.96625e+07
2.9627e+07
2.95916e+07
2.95562e+07
2.95207e+07
2.94853e+07
2.945e+07
2.94147e+07
2.93794e+07
2.93441e+07
2.93089e+07
2.92738e+07
2.92388e+07
2.92038e+07
2.91689e+07
2.91341e+07
2.90995e+07
2.90649e+07
2.90306e+07
2.89964e+07
2.89625e+07
2.89288e+07
2.88955e+07
2.88625e+07
2.883e+07
2.87978e+07
2.87665e+07
2.87355e+07
2.87058e+07
2.86766e+07
2.8649e+07
2.86222e+07
2.85973e+07
2.8574e+07
2.85528e+07
2.85338e+07
2.85175e+07
2.8504e+07
2.84936e+07
2.84865e+07
2.8483e+07
2.99822e+07
2.99467e+07
2.99112e+07
2.98757e+07
2.98402e+07
2.98047e+07
2.97693e+07
2.97338e+07
2.96983e+07
2.96629e+07
2.96275e+07
2.95921e+07
2.95567e+07
2.95214e+07
2.94861e+07
2.94508e+07
2.94156e+07
2.93805e+07
2.93454e+07
2.93103e+07
2.92754e+07
2.92405e+07
2.92058e+07
2.91712e+07
2.91367e+07
2.91024e+07
2.90682e+07
2.90343e+07
2.90006e+07
2.89672e+07
2.89341e+07
2.89015e+07
2.88691e+07
2.88375e+07
2.88061e+07
2.87758e+07
2.87458e+07
2.87172e+07
2.86891e+07
2.86628e+07
2.86372e+07
2.86138e+07
2.85917e+07
2.8572e+07
2.85543e+07
2.85392e+07
2.85267e+07
2.85172e+07
2.85108e+07
2.85075e+07
2.99823e+07
2.99468e+07
2.99113e+07
2.98758e+07
2.98404e+07
2.98049e+07
2.97695e+07
2.9734e+07
2.96986e+07
2.96632e+07
2.96279e+07
2.95926e+07
2.95573e+07
2.9522e+07
2.94868e+07
2.94516e+07
2.94165e+07
2.93815e+07
2.93465e+07
2.93117e+07
2.92769e+07
2.92422e+07
2.92077e+07
2.91733e+07
2.91391e+07
2.91051e+07
2.90713e+07
2.90378e+07
2.90045e+07
2.89717e+07
2.89391e+07
2.8907e+07
2.88753e+07
2.88444e+07
2.88139e+07
2.87844e+07
2.87554e+07
2.87277e+07
2.87009e+07
2.86755e+07
2.86513e+07
2.8629e+07
2.86082e+07
2.85895e+07
2.85729e+07
2.85588e+07
2.85472e+07
2.85383e+07
2.85323e+07
2.85293e+07
2.99823e+07
2.99468e+07
2.99114e+07
2.98759e+07
2.98405e+07
2.98051e+07
2.97697e+07
2.97343e+07
2.96989e+07
2.96636e+07
2.96283e+07
2.9593e+07
2.95578e+07
2.95226e+07
2.94874e+07
2.94524e+07
2.94174e+07
2.93824e+07
2.93476e+07
2.93129e+07
2.92783e+07
2.92438e+07
2.92095e+07
2.91753e+07
2.91414e+07
2.91077e+07
2.90742e+07
2.9041e+07
2.90081e+07
2.89757e+07
2.89436e+07
2.89121e+07
2.8881e+07
2.88506e+07
2.88208e+07
2.87921e+07
2.87639e+07
2.87371e+07
2.87111e+07
2.86867e+07
2.86635e+07
2.86421e+07
2.86223e+07
2.86046e+07
2.85889e+07
2.85756e+07
2.85647e+07
2.85564e+07
2.85508e+07
2.8548e+07
2.99823e+07
2.99469e+07
2.99114e+07
2.9876e+07
2.98406e+07
2.98052e+07
2.97698e+07
2.97345e+07
2.96992e+07
2.96639e+07
2.96286e+07
2.95934e+07
2.95582e+07
2.95231e+07
2.9488e+07
2.9453e+07
2.94181e+07
2.93833e+07
2.93486e+07
2.9314e+07
2.92795e+07
2.92452e+07
2.92111e+07
2.91771e+07
2.91434e+07
2.91099e+07
2.90768e+07
2.90439e+07
2.90114e+07
2.89793e+07
2.89477e+07
2.89166e+07
2.88861e+07
2.88563e+07
2.88271e+07
2.8799e+07
2.87716e+07
2.87455e+07
2.87203e+07
2.86967e+07
2.86744e+07
2.86538e+07
2.86348e+07
2.86179e+07
2.8603e+07
2.85903e+07
2.85799e+07
2.85721e+07
2.85668e+07
2.85641e+07
2.99823e+07
2.99469e+07
2.99115e+07
2.98761e+07
2.98407e+07
2.98054e+07
2.977e+07
2.97347e+07
2.96994e+07
2.96641e+07
2.96289e+07
2.95937e+07
2.95586e+07
2.95235e+07
2.94885e+07
2.94536e+07
2.94188e+07
2.93841e+07
2.93495e+07
2.9315e+07
2.92806e+07
2.92465e+07
2.92125e+07
2.91787e+07
2.91452e+07
2.9112e+07
2.9079e+07
2.90464e+07
2.90142e+07
2.89825e+07
2.89512e+07
2.89205e+07
2.88904e+07
2.88611e+07
2.88325e+07
2.88049e+07
2.87781e+07
2.87526e+07
2.87281e+07
2.87052e+07
2.86835e+07
2.86636e+07
2.86453e+07
2.8629e+07
2.86147e+07
2.86026e+07
2.85927e+07
2.85852e+07
2.85801e+07
2.85776e+07
2.99823e+07
2.99469e+07
2.99115e+07
2.98762e+07
2.98408e+07
2.98055e+07
2.97701e+07
2.97348e+07
2.96996e+07
2.96644e+07
2.96292e+07
2.9594e+07
2.9559e+07
2.95239e+07
2.9489e+07
2.94541e+07
2.94194e+07
2.93847e+07
2.93502e+07
2.93158e+07
2.92816e+07
2.92475e+07
2.92137e+07
2.91801e+07
2.91467e+07
2.91137e+07
2.90809e+07
2.90486e+07
2.90166e+07
2.89852e+07
2.89542e+07
2.89239e+07
2.88942e+07
2.88653e+07
2.88371e+07
2.88099e+07
2.87837e+07
2.87586e+07
2.87348e+07
2.87123e+07
2.86912e+07
2.86719e+07
2.86542e+07
2.86384e+07
2.86245e+07
2.86128e+07
2.86033e+07
2.85961e+07
2.85912e+07
2.85888e+07
2.99823e+07
2.99469e+07
2.99116e+07
2.98762e+07
2.98409e+07
2.98056e+07
2.97703e+07
2.9735e+07
2.96997e+07
2.96645e+07
2.96294e+07
2.95943e+07
2.95592e+07
2.95243e+07
2.94894e+07
2.94546e+07
2.94198e+07
2.93853e+07
2.93508e+07
2.93165e+07
2.92824e+07
2.92484e+07
2.92147e+07
2.91812e+07
2.9148e+07
2.91151e+07
2.90825e+07
2.90503e+07
2.90186e+07
2.89874e+07
2.89567e+07
2.89266e+07
2.88972e+07
2.88686e+07
2.88408e+07
2.88139e+07
2.87881e+07
2.87635e+07
2.874e+07
2.8718e+07
2.86973e+07
2.86784e+07
2.86611e+07
2.86457e+07
2.86322e+07
2.86208e+07
2.86116e+07
2.86046e+07
2.85999e+07
2.85975e+07
2.99823e+07
2.9947e+07
2.99116e+07
2.98763e+07
2.98409e+07
2.98056e+07
2.97703e+07
2.97351e+07
2.96999e+07
2.96647e+07
2.96295e+07
2.95945e+07
2.95594e+07
2.95245e+07
2.94896e+07
2.94549e+07
2.94202e+07
2.93857e+07
2.93513e+07
2.9317e+07
2.92829e+07
2.92491e+07
2.92154e+07
2.9182e+07
2.91489e+07
2.91161e+07
2.90837e+07
2.90517e+07
2.90201e+07
2.8989e+07
2.89585e+07
2.89287e+07
2.88995e+07
2.88711e+07
2.88436e+07
2.8817e+07
2.87915e+07
2.87671e+07
2.8744e+07
2.87222e+07
2.8702e+07
2.86833e+07
2.86663e+07
2.86512e+07
2.8638e+07
2.86269e+07
2.86178e+07
2.8611e+07
2.86064e+07
2.86041e+07
2.99823e+07