/*--------------------------------*- C++ -*----------------------------------*\
| =========                 |                                                 |
| \\      /  F ield         | foam-extend: Open Source CFD                    |
|  \\    /   O peration     | Version:     4.0                                |
|   \\  /    A nd           | Web:         http://www.foam-extend.org         |
|    \\/     M anipulation  |                                                 |
\*---------------------------------------------------------------------------*/
FoamFile
{
    version     2.0;
    format      ascii;
    class       surfaceScalarField;
    location    "0.0011";
    object      phi;
}
// * * * * * * * * * * * * * * * * * * * * * * * * * * * * * * * * * * * * * //

dimensions      [0 3 -1 0 0 0 0];

internalField   nonuniform List<scalar> 
57362
(
5.8825e-11
3.49328e-15
5.88145e-11
1.05332e-14
5.87967e-11
1.77339e-14
5.87715e-11
2.52051e-14
5.87385e-11
3.30603e-14
5.8697e-11
4.14185e-14
5.86466e-11
5.04055e-14
5.85865e-11
6.01559e-14
5.85157e-11
7.08149e-14
5.84331e-11
8.25396e-14
5.83376e-11
9.55016e-14
5.82277e-11
1.09888e-13
5.81018e-11
1.25906e-13
5.7958e-11
1.4378e-13
5.77942e-11
1.6376e-13
5.76081e-11
1.86118e-13
5.73969e-11
2.11156e-13
5.71577e-11
2.39199e-13
5.68871e-11
2.70609e-13
5.65813e-11
3.05772e-13
5.62362e-11
3.45119e-13
5.5847e-11
3.89091e-13
5.54088e-11
4.38197e-13
5.49158e-11
4.92911e-13
5.4362e-11
5.53841e-13
5.37405e-11
6.21435e-13
5.30441e-11
6.96429e-13
5.22648e-11
7.79124e-13
5.13944e-11
8.70456e-13
5.04238e-11
9.70342e-13
4.93439e-11
1.08005e-12
4.81449e-11
1.19874e-12
4.68169e-11
1.32822e-12
4.53501e-11
1.46634e-12
4.37348e-11
1.61566e-12
4.19619e-11
1.77222e-12
4.0023e-11
1.93934e-12
3.79113e-11
2.111e-12
3.56209e-11
2.29083e-12
3.31491e-11
2.47115e-12
3.04946e-11
2.65493e-12
2.76601e-11
2.83384e-12
2.46513e-11
3.00916e-12
2.14778e-11
3.17304e-12
1.81533e-11
3.32485e-12
1.4695e-11
3.45799e-12
1.11246e-11
3.57063e-12
7.46654e-12
3.65794e-12
3.74854e-12
3.71812e-12
3.74858e-12
5.88258e-11
6.93472e-15
5.88154e-11
2.09101e-14
5.8798e-11
3.52049e-14
5.87731e-11
5.00369e-14
5.87405e-11
6.56318e-14
5.86997e-11
8.22258e-14
5.86501e-11
1.00069e-13
5.85908e-11
1.19429e-13
5.8521e-11
1.40594e-13
5.84397e-11
1.63877e-13
5.83455e-11
1.89619e-13
5.82372e-11
2.18193e-13
5.81131e-11
2.50009e-13
5.79714e-11
2.85516e-13
5.78099e-11
3.25211e-13
5.76264e-11
3.69637e-13
5.74181e-11
4.19393e-13
5.71822e-11
4.75132e-13
5.69152e-11
5.37575e-13
5.66134e-11
6.07493e-13
5.62728e-11
6.85748e-13
5.58886e-11
7.73222e-13
5.54559e-11
8.70938e-13
5.49689e-11
9.79848e-13
5.44216e-11
1.10117e-12
5.38071e-11
1.23582e-12
5.31183e-11
1.38528e-12
5.23472e-11
1.55014e-12
5.14854e-11
1.73236e-12
5.05238e-11
1.9317e-12
4.94533e-11
2.15087e-12
4.82637e-11
2.38803e-12
4.69453e-11
2.6471e-12
4.54878e-11
2.92346e-12
4.38813e-11
3.22285e-12
4.21164e-11
3.53658e-12
4.01843e-11
3.87242e-12
3.80778e-11
4.21698e-12
3.57905e-11
4.57924e-12
3.33194e-11
4.9419e-12
3.06626e-11
5.3129e-12
2.78226e-11
5.67358e-12
2.48047e-11
6.02809e-12
2.16185e-11
6.35927e-12
1.82775e-11
6.66672e-12
1.47993e-11
6.93634e-12
1.12059e-11
7.16478e-12
7.52225e-12
7.34188e-12
3.77688e-12
7.46404e-12
7.52587e-12
5.88453e-11
1.02742e-14
5.88352e-11
3.09798e-14
5.88183e-11
5.21589e-14
5.87942e-11
7.41349e-14
5.87626e-11
9.72423e-14
5.8723e-11
1.21831e-13
5.86748e-11
1.48274e-13
5.86172e-11
1.76966e-13
5.85495e-11
2.08337e-13
5.84705e-11
2.4285e-13
5.83791e-11
2.81014e-13
5.82739e-11
3.23381e-13
5.81533e-11
3.70563e-13
5.80156e-11
4.23229e-13
5.78587e-11
4.82117e-13
5.76803e-11
5.48038e-13
5.74778e-11
6.21885e-13
5.72482e-11
7.04635e-13
5.69884e-11
7.97366e-13
5.66947e-11
9.01231e-13
5.63629e-11
1.01753e-12
5.59885e-11
1.14757e-12
5.55665e-11
1.29292e-12
5.50913e-11
1.45499e-12
5.45568e-11
1.63565e-12
5.39562e-11
1.83625e-12
5.32824e-11
2.05911e-12
5.25273e-11
2.30509e-12
5.16825e-11
2.57724e-12
5.07386e-11
2.87518e-12
4.96864e-11
3.20319e-12
4.85155e-11
3.55836e-12
4.72158e-11
3.94703e-12
4.57766e-11
4.36191e-12
4.41874e-11
4.8123e-12
4.24382e-11
5.28462e-12
4.05194e-11
5.79144e-12
3.84232e-11
6.31192e-12
3.6142e-11
6.86045e-12
3.36722e-11
7.41039e-12
3.10108e-11
7.9742e-12
2.81596e-11
8.52341e-12
2.51233e-11
9.06426e-12
2.19109e-11
9.57055e-12
1.8536e-11
1.00413e-11
1.50165e-11
1.04549e-11
1.13752e-11
1.08058e-11
7.63836e-12
1.10782e-11
3.83593e-12
1.12662e-11
1.13614e-11
5.88653e-11
1.3462e-14
5.88557e-11
4.05922e-14
5.88395e-11
6.83437e-14
5.88165e-11
9.71407e-14
5.87863e-11
1.27422e-13
5.87485e-11
1.59648e-13
5.87025e-11
1.94306e-13
5.86475e-11
2.31918e-13
5.85828e-11
2.73046e-13
5.85073e-11
3.18302e-13
5.842e-11
3.68352e-13
5.83194e-11
4.23926e-13
5.82042e-11
4.85828e-13
5.80724e-11
5.54942e-13
5.79223e-11
6.32242e-13
5.77515e-11
7.18799e-13
5.75576e-11
8.15797e-13
5.73377e-11
9.24528e-13
5.70886e-11
1.04643e-12
5.68068e-11
1.18302e-12
5.64883e-11
1.33605e-12
5.61286e-11
1.50726e-12
5.57227e-11
1.69875e-12
5.52653e-11
1.91241e-12
5.47502e-11
2.15079e-12
5.41706e-11
2.4157e-12
5.35195e-11
2.71032e-12
5.27887e-11
3.0358e-12
5.19698e-11
3.39645e-12
5.1053e-11
3.79162e-12
5.00292e-11
4.22761e-12
4.88871e-11
4.7e-12
4.76166e-11
5.21855e-12
4.62058e-11
5.77209e-12
4.46438e-11
6.37573e-12
4.29196e-11
7.00814e-12
4.10221e-11
7.691e-12
3.89426e-11
8.39071e-12
3.66716e-11
9.13392e-12
3.42047e-11
9.87685e-12
3.15367e-11
1.06447e-11
2.86691e-11
1.1391e-11
2.56051e-11
1.21306e-11
2.23533e-11
1.28227e-11
1.89275e-11
1.34691e-11
1.53457e-11
1.40374e-11
1.16321e-11
1.45209e-11
7.81455e-12
1.48966e-11
3.92558e-12
1.51563e-11
1.5288e-11
5.88855e-11
1.64505e-14
5.88765e-11
4.96038e-14
5.88613e-11
8.35176e-14
5.88397e-11
1.18711e-13
5.88114e-11
1.55722e-13
5.8776e-11
1.95114e-13
5.87328e-11
2.37483e-13
5.86812e-11
2.83471e-13
5.86205e-11
3.33767e-13
5.85497e-11
3.8912e-13
5.84677e-11
4.5035e-13
5.83733e-11
5.18356e-13
5.82649e-11
5.94126e-13
5.81411e-11
6.78748e-13
5.79999e-11
7.73425e-13
5.78392e-11
8.79481e-13
5.76566e-11
9.9838e-13
5.74494e-11
1.13172e-12
5.72145e-11
1.28129e-12
5.69485e-11
1.44899e-12
5.66476e-11
1.63699e-12
5.63073e-11
1.84748e-12
5.5923e-11
2.0831e-12
5.5489e-11
2.34623e-12
5.49997e-11
2.64011e-12
5.44482e-11
2.96703e-12
5.38275e-11
3.33113e-12
5.31291e-11
3.73383e-12
5.23448e-11
4.18086e-12
5.14645e-11
4.67128e-12
5.04787e-11
5.21367e-12
4.93757e-11
5.80206e-12
4.81445e-11
6.44998e-12
4.67727e-11
7.14242e-12
4.52482e-11
7.90056e-12
4.35587e-11
8.69568e-12
4.16914e-11
9.5583e-12
3.96365e-11
1.04433e-11
3.73819e-11
1.13881e-11
3.49218e-11
1.23344e-11
3.22488e-11
1.33169e-11
2.93621e-11
1.4275e-11
2.62636e-11
1.52281e-11
2.29607e-11
1.61232e-11
1.94668e-11
1.69619e-11
1.58006e-11
1.77016e-11
1.19879e-11
1.83326e-11
8.05901e-12
1.8824e-11
4.05008e-12
1.91643e-11
1.93369e-11
5.89235e-11
1.91957e-14
5.89153e-11
5.7882e-14
5.89013e-11
9.74575e-14
5.88815e-11
1.38529e-13
5.88555e-11
1.81726e-13
5.88229e-11
2.27707e-13
5.87832e-11
2.77173e-13
5.87358e-11
3.30871e-13
5.868e-11
3.89611e-13
5.86148e-11
4.54274e-13
5.85393e-11
5.2582e-13
5.84524e-11
6.05305e-13
5.83526e-11
6.93894e-13
5.82385e-11
7.92869e-13
5.81082e-11
9.03649e-13
5.79599e-11
1.0278e-12
5.77912e-11
1.16705e-12
5.75996e-11
1.32331e-12
5.73822e-11
1.4987e-12
5.71357e-11
1.69549e-12
5.68564e-11
1.91626e-12
5.65402e-11
2.16367e-12
5.61824e-11
2.44088e-12
5.57778e-11
2.7508e-12
5.53206e-11
3.09739e-12
5.48041e-11
3.48341e-12
5.42214e-11
3.91406e-12
5.3564e-11
4.39103e-12
5.28237e-11
4.92174e-12
5.19897e-11
5.50474e-12
5.10528e-11
6.15167e-12
5e-11
6.85413e-12
4.88204e-11
7.63149e-12
4.74995e-11
8.46217e-12
4.60246e-11
9.37843e-12
4.43814e-11
1.03374e-11
4.25549e-11
1.1389e-11
4.05336e-11
1.2463e-11
3.83013e-11
1.36257e-11
3.58518e-11
1.47829e-11
3.31719e-11
1.60022e-11
3.02611e-11
1.71859e-11
2.71181e-11
1.8376e-11
2.37491e-11
1.94932e-11
2.01678e-11
2.05472e-11
1.63923e-11
2.14787e-11
1.24513e-11
2.22766e-11
8.37757e-12
2.28995e-11
4.21246e-12
2.33318e-11
2.35514e-11
5.89609e-11
2.1656e-14
5.89535e-11
6.53016e-14
5.8941e-11
1.09953e-13
5.89232e-11
1.56295e-13
5.88999e-11
2.05042e-13
5.88707e-11
2.56938e-13
5.88351e-11
3.12775e-13
5.87925e-11
3.73403e-13
5.87424e-11
4.3974e-13
5.86839e-11
5.12783e-13
5.86161e-11
5.93626e-13
5.85379e-11
6.8347e-13
5.84482e-11
7.83641e-13
5.83454e-11
8.95603e-13
5.82281e-11
1.02098e-12
5.80943e-11
1.16155e-12
5.7942e-11
1.31933e-12
5.77688e-11
1.49648e-12
5.75721e-11
1.69546e-12
5.73486e-11
1.91891e-12
5.70951e-11
2.16982e-12
5.68074e-11
2.45128e-12
5.64812e-11
2.76702e-12
5.61115e-11
3.12043e-12
5.56927e-11
3.51625e-12
5.5218e-11
3.95774e-12
5.4681e-11
4.45123e-12
5.40728e-11
4.99872e-12
5.33853e-11
5.60942e-12
5.26076e-11
6.28153e-12
5.17298e-11
7.02984e-12
5.07384e-11
7.84389e-12
4.96216e-11
8.74878e-12
4.8364e-11
9.71738e-12
4.69507e-11
1.0792e-11
4.53665e-11
1.19184e-11
4.35929e-11
1.31624e-11
4.1617e-11
1.44348e-11
3.94186e-11
1.58229e-11
3.69883e-11
1.72085e-11
3.431e-11
1.86783e-11
3.13778e-11
2.01132e-11
2.81877e-11
2.15633e-11
2.47429e-11
2.29333e-11
2.10561e-11
2.42313e-11
1.7146e-11
2.53849e-11
1.30436e-11
2.63766e-11
8.78608e-12
2.7154e-11
4.42094e-12
2.76947e-11
2.797e-11
5.89971e-11
2.37941e-14
5.89906e-11
7.17498e-14
5.89798e-11
1.20813e-13
5.89643e-11
1.7174e-13
5.8944e-11
2.25314e-13
5.89186e-11
2.82359e-13
5.88876e-11
3.43749e-13
5.88506e-11
4.10421e-13
5.8807e-11
4.83389e-13
5.8756e-11
5.63758e-13
5.86969e-11
6.52738e-13
5.86287e-11
7.51662e-13
5.85503e-11
8.62003e-13
5.84605e-11
9.85388e-13
5.83579e-11
1.12363e-12
5.82407e-11
1.27872e-12
5.81071e-11
1.45289e-12
5.7955e-11
1.64861e-12
5.77818e-11
1.86861e-12
5.75848e-11
2.11589e-12
5.73608e-11
2.39385e-12
5.7106e-11
2.70601e-12
5.68165e-11
3.05664e-12
5.64871e-11
3.44965e-12
5.6113e-11
3.89055e-12
5.56874e-11
4.38314e-12
5.52042e-11
4.93496e-12
5.46541e-11
5.5483e-12
5.403e-11
6.23451e-12
5.33196e-11
6.99115e-12
5.25141e-11
7.83723e-12
5.15977e-11
8.75888e-12
5.05598e-11
9.79019e-12
4.93809e-11
1.08938e-11
4.80475e-11
1.21312e-11
4.65391e-11
1.34234e-11
4.48355e-11
1.48744e-11
4.29215e-11
1.6345e-11
4.07672e-11
1.79878e-11
3.83676e-11
1.96054e-11
3.56904e-11
2.13665e-11
3.27333e-11
2.30701e-11
2.94877e-11
2.48186e-11
2.5952e-11
2.64711e-11
2.21401e-11
2.80509e-11
1.8067e-11
2.94611e-11
1.37694e-11
3.06801e-11
9.28712e-12
3.16397e-11
4.67709e-12
3.23091e-11
3.26507e-11
5.90494e-11
2.55778e-14
5.9044e-11
7.71292e-14
5.9035e-11
1.29874e-13
5.90221e-11
1.84628e-13
5.90052e-11
2.42237e-13
5.89839e-11
3.03589e-13
5.89581e-11
3.69626e-13
5.89271e-11
4.41364e-13
5.88906e-11
5.19898e-13
5.88479e-11
6.06425e-13
5.87984e-11
7.02257e-13
5.87412e-11
8.08843e-13
5.86754e-11
9.27782e-13
5.86e-11
1.06085e-12
5.85136e-11
1.21002e-12
5.84148e-11
1.37748e-12
5.8302e-11
1.56569e-12
5.81732e-11
1.77733e-12
5.80264e-11
2.01546e-12
5.78588e-11
2.28337e-12
5.76678e-11
2.58487e-12
5.74499e-11
2.92388e-12
5.72013e-11
3.3052e-12
5.69175e-11
3.73329e-12
5.65938e-11
4.2144e-12
5.62236e-11
4.75293e-12
5.58012e-11
5.35761e-12
5.53174e-11
6.03121e-12
5.47653e-11
6.78712e-12
5.41321e-11
7.62275e-12
5.34092e-11
8.56091e-12
5.25798e-11
9.58566e-12
5.16323e-11
1.07386e-11
5.05467e-11
1.19755e-11
4.93059e-11
1.33726e-11
4.78894e-11
1.48346e-11
4.62713e-11
1.64919e-11
4.44351e-11
1.81748e-11
4.23457e-11
2.00745e-11
3.99913e-11
2.19522e-11
3.73391e-11
2.40136e-11
3.43722e-11
2.60283e-11
3.10769e-11
2.81077e-11
2.7446e-11
3.00934e-11
2.3489e-11
3.20018e-11
1.92225e-11
3.37204e-11
1.46841e-11
3.52133e-11
9.92172e-12
3.63965e-11
5.00207e-12
3.72245e-11
3.76484e-11
5.90992e-11
2.6979e-14
5.9095e-11
8.13558e-14
5.90879e-11
1.36995e-13
5.90777e-11
1.9476e-13
5.90644e-11
2.55545e-13
5.90477e-11
3.20292e-13
5.90274e-11
3.9e-13
5.9003e-11
4.65743e-13
5.89742e-11
5.48688e-13
5.89405e-11
6.40106e-13
5.89014e-11
7.41394e-13
5.88561e-11
8.54096e-13
5.8804e-11
9.79922e-13
5.8744e-11
1.12077e-12
5.86753e-11
1.27876e-12
5.85965e-11
1.45624e-12
5.85063e-11
1.65586e-12
5.84031e-11
1.88053e-12
5.82851e-11
2.13356e-12
5.81499e-11
2.41853e-12
5.79951e-11
2.73962e-12
5.78178e-11
3.10114e-12
5.76147e-11
3.50842e-12
5.73815e-11
3.9664e-12
5.71141e-11
4.4821e-12
5.68061e-11
5.06055e-12
5.64528e-11
5.71167e-12
5.60445e-11
6.43879e-12
5.55757e-11
7.2575e-12
5.5032e-11
8.16497e-12
5.44075e-11
9.18867e-12
5.3681e-11
1.03094e-11
5.28458e-11
1.15799e-11
5.18731e-11
1.29433e-11
5.07528e-11
1.45035e-11
4.94523e-11
1.61276e-11
4.79481e-11
1.80121e-11
4.62191e-11
1.98947e-11
4.42098e-11
2.21044e-11
4.193e-11
2.42249e-11
3.92969e-11
2.66679e-11
3.6313e-11
2.90119e-11
3.29615e-11
3.14772e-11
2.92176e-11
3.38418e-11
2.50971e-11
3.61362e-11
2.06021e-11
3.82219e-11
1.57811e-11
4.00446e-11
1.06838e-11
4.15004e-11
5.39335e-12
4.25226e-11
4.30483e-11
5.91457e-11
2.79757e-14
5.91427e-11
8.43627e-14
5.91376e-11
1.42063e-13
5.91304e-11
2.01974e-13
5.91209e-11
2.65027e-13
5.9109e-11
3.32202e-13
5.90945e-11
4.04542e-13
5.90771e-11
4.83167e-13
5.90565e-11
5.69294e-13
5.90323e-11
6.64253e-13
5.90042e-11
7.69508e-13
5.89716e-11
8.86676e-13
5.8934e-11
1.01755e-12
5.88906e-11
1.16414e-12
5.88407e-11
1.32867e-12
5.87833e-11
1.51364e-12
5.87173e-11
1.72183e-12
5.86414e-11
1.95637e-12
5.85542e-11
2.22078e-12
5.84538e-11
2.51892e-12
5.83382e-11
2.85525e-12
5.82047e-11
3.2345e-12
5.80508e-11
3.6624e-12
5.78724e-11
4.14447e-12
5.76663e-11
4.68838e-12
5.74264e-11
5.29988e-12
5.71486e-11
5.98992e-12
5.68235e-11
6.76274e-12
5.64461e-11
7.63567e-12
5.60022e-11
8.60665e-12
5.54855e-11
9.70656e-12
5.48755e-11
1.09156e-11
5.41629e-11
1.22941e-11
5.3321e-11
1.37795e-11
5.23324e-11
1.54932e-11
5.11691e-11
1.72831e-11
4.97957e-11
1.93845e-11
4.81938e-11
2.14872e-11
4.63012e-11
2.39917e-11
4.41133e-11
2.64016e-11
4.15656e-11
2.92052e-11
3.86151e-11
3.19471e-11
3.52339e-11
3.48459e-11
3.1391e-11
3.76694e-11
2.70883e-11
4.04269e-11
2.23321e-11
4.2965e-11
1.71662e-11
4.52006e-11
1.16534e-11
4.70034e-11
5.89252e-12
4.82758e-11
4.89333e-11
5.92062e-11
2.85519e-14
5.92045e-11
8.61015e-14
5.92016e-11
1.44995e-13
5.91974e-11
2.06153e-13
5.91919e-11
2.70528e-13
5.9185e-11
3.39126e-13
5.91765e-11
4.13015e-13
5.91663e-11
4.93346e-13
5.91542e-11
5.81371e-13
5.914e-11
6.78459e-13
5.91234e-11
7.86118e-13
5.91041e-11
9.06018e-13
5.90816e-11
1.04002e-12
5.90555e-11
1.19019e-12
5.90254e-11
1.35886e-12
5.89904e-11
1.54861e-12
5.89498e-11
1.76238e-12
5.89028e-11
2.00341e-12
5.88482e-11
2.27543e-12
5.87845e-11
2.58251e-12
5.87105e-11
2.92939e-12
5.86238e-11
3.32111e-12
5.85225e-11
3.76382e-12
5.84033e-11
4.26354e-12
5.82636e-11
4.8285e-12
5.80977e-11
5.46526e-12
5.79031e-11
6.18561e-12
5.76698e-11
6.99495e-12
5.73958e-11
7.91202e-12
5.7064e-11
8.93616e-12
5.66743e-11
1.01011e-11
5.61977e-11
1.13875e-11
5.56382e-11
1.28632e-11
5.49496e-11
1.44593e-11
5.41381e-11
1.63221e-11
5.31434e-11
1.82631e-11
5.19541e-11
2.06019e-11
5.05309e-11
2.28903e-11
4.87768e-11
2.57843e-11
4.67686e-11
2.8392e-11
4.4267e-11
3.17455e-11
4.13081e-11
3.49071e-11
3.78986e-11
3.8286e-11
3.39359e-11
4.16426e-11
2.94421e-11
4.4944e-11
2.43809e-11
4.80394e-11
1.88164e-11
5.07824e-11
1.28109e-11
5.30209e-11
6.49048e-12
5.46086e-11
5.54345e-11
5.92618e-11
2.86974e-14
5.92614e-11
8.65416e-14
5.92607e-11
1.45741e-13
5.92596e-11
2.07223e-13
5.92582e-11
2.7195e-13
5.92564e-11
3.40937e-13
5.92541e-11
4.15263e-13
5.92514e-11
4.96094e-13
5.9248e-11
5.84694e-13
5.9244e-11
6.82453e-13
5.92393e-11
7.90902e-13
5.92335e-11
9.1174e-13
5.92267e-11
1.04686e-12
5.92185e-11
1.19838e-12
5.92087e-11
1.36867e-12
5.91969e-11
1.5604e-12
5.91827e-11
1.77657e-12
5.91655e-11
2.02056e-12
5.91448e-11
2.29619e-12
5.91195e-11
2.60774e-12
5.90888e-11
2.96013e-12
5.90511e-11
3.3587e-12
5.90051e-11
3.80991e-12
5.89481e-11
4.32025e-12
5.88784e-11
4.8984e-12
5.87912e-11
5.55178e-12
5.86846e-11
6.29276e-12
5.85498e-11
7.12824e-12
5.83852e-11
8.07774e-12
5.81754e-11
9.1431e-12
5.79191e-11
1.03593e-11
5.75912e-11
1.17104e-11
5.71892e-11
1.32678e-11
5.66766e-11
1.49641e-11
5.60426e-11
1.69585e-11
5.52451e-11
1.90498e-11
5.4243e-11
2.16038e-11
5.30163e-11
2.41038e-11
5.14496e-11
2.73429e-11
4.95949e-11
3.02324e-11
4.73251e-11
3.39961e-11
4.45188e-11
3.76859e-11
4.1138e-11
4.16433e-11
3.71045e-11
4.56491e-11
3.24007e-11
4.96256e-11
2.70046e-11
5.34123e-11
2.09531e-11
5.68159e-11
1.43264e-11
5.96314e-11
7.27693e-12
6.16457e-11
6.27002e-11
5.93117e-11
2.84087e-14
5.93125e-11
8.56724e-14
5.9314e-11
1.44282e-13
5.93161e-11
2.05158e-13
5.93188e-11
2.69258e-13
5.93221e-11
3.3759e-13
5.93261e-11
4.11229e-13
5.93309e-11
4.91334e-13
5.93364e-11
5.7917e-13
5.93428e-11
6.7612e-13
5.93499e-11
7.83718e-13
5.9358e-11
9.03665e-13
5.9367e-11
1.03786e-12
5.9377e-11
1.18843e-12
5.93879e-11
1.35777e-12
5.93997e-11
1.54858e-12
5.94124e-11
1.76389e-12
5.94258e-11
2.00714e-12
5.94398e-11
2.28223e-12
5.94539e-11
2.59356e-12
5.9468e-11
2.94616e-12
5.94809e-11
3.34562e-12
5.94925e-11
3.79857e-12
5.95005e-11
4.31197e-12
5.95047e-11
4.89475e-12
5.95007e-11
5.55523e-12
5.94888e-11
6.30597e-12
5.94597e-11
7.15585e-12
5.94165e-11
8.12402e-12
5.93397e-11
9.21663e-12
5.9239e-11
1.04666e-11
5.90753e-11
1.18671e-11
5.8873e-11
1.34834e-11
5.8557e-11
1.52661e-11
5.81779e-11
1.73634e-11
5.76068e-11
1.95951e-11
5.69116e-11
2.23446e-11
5.59516e-11
2.50223e-11
5.46181e-11
2.87466e-11
5.32484e-11
3.15567e-11
5.10244e-11
3.62868e-11
4.81326e-11
4.05892e-11
4.48354e-11
4.49868e-11
4.07385e-11
4.97707e-11
3.58601e-11
5.45397e-11
3.00818e-11
5.92177e-11
2.34738e-11
6.34515e-11
1.61202e-11
6.70055e-11
8.21194e-12
6.95722e-11
7.09277e-11
5.93731e-11
2.76888e-14
5.93752e-11
8.35027e-14
5.93789e-11
1.40632e-13
5.93841e-11
1.99978e-13
5.93908e-11
2.62477e-13
5.93993e-11
3.29114e-13
5.94096e-11
4.00945e-13
5.94218e-11
4.79106e-13
5.94362e-11
5.64836e-13
5.94528e-11
6.59499e-13
5.94719e-11
7.64602e-13
5.94938e-11
8.81821e-13
5.95186e-11
1.01304e-12
5.95467e-11
1.16035e-12
5.95783e-11
1.32614e-12
5.96138e-11
1.51308e-12
5.96535e-11
1.7242e-12
5.96977e-11
1.96296e-12
5.97467e-11
2.23325e-12
5.98007e-11
2.53952e-12
5.986e-11
2.88686e-12
5.99245e-11
3.28098e-12
5.99946e-11
3.72861e-12
6.00692e-11
4.23708e-12
6.01489e-11
4.81537e-12
6.02306e-11
5.4727e-12
6.03158e-11
6.22154e-12
6.03971e-11
7.07277e-12
6.04779e-11
8.04478e-12
6.05428e-11
9.1483e-12
6.05986e-11
1.04135e-11
6.06159e-11
1.18437e-11
6.06066e-11
1.3497e-11
6.05191e-11
1.53434e-11
6.0368e-11
1.75204e-11
6.00753e-11
1.98722e-11
5.96281e-11
2.2797e-11
5.89685e-11
2.56621e-11
5.78579e-11
2.98502e-11
5.66351e-11
3.27707e-11
5.50409e-11
2.06735e-11
1.71764e-11
5.26565e-11
1.96455e-11
2.3273e-11
4.94851e-11
2.22423e-11
2.58744e-11
4.53943e-11
2.51424e-11
2.86713e-11
4.03161e-11
2.81217e-11
3.14538e-11
3.41574e-11
3.11485e-11
3.41822e-11
2.68869e-11
3.40517e-11
3.66328e-11
1.85886e-11
3.66469e-11
3.86259e-11
9.508e-12
3.86906e-11
3.99387e-11
3.99943e-11
4.04213e-11
5.94252e-11
2.65474e-14
5.94286e-11
8.00617e-14
5.94344e-11
1.34841e-13
5.94426e-11
1.91752e-13
5.94534e-11
2.51695e-13
5.94669e-11
3.15621e-13
5.94833e-11
3.84544e-13
5.95029e-11
4.59562e-13
5.95258e-11
5.41871e-13
5.95525e-11
6.32789e-13
5.95834e-11
7.33774e-13
5.96187e-11
8.46453e-13
5.96591e-11
9.72648e-13
5.97051e-11
1.11441e-12
5.97572e-11
1.27405e-12
5.9816e-11
1.45419e-12
5.98824e-11
1.65781e-12
5.99571e-11
1.88828e-12
6.00409e-11
2.14947e-12
6.01346e-11
2.44578e-12
6.02393e-11
2.78226e-12
6.03555e-11
3.16467e-12
6.04847e-11
3.59967e-12
6.06267e-11
4.09486e-12
6.07836e-11
4.65908e-12
6.09532e-11
5.30237e-12
6.11396e-11
6.03661e-12
6.13356e-11
6.87507e-12
6.15499e-11
7.83391e-12
6.17638e-11
8.93049e-12
6.19975e-11
1.01873e-11
6.22061e-11
1.16264e-11
6.24387e-11
1.32801e-11
6.25893e-11
1.51747e-11
6.27831e-11
1.73582e-11
6.276e-11
1.9858e-11
6.28722e-11
2.27482e-11
6.24065e-11
2.60509e-11
6.25146e-11
2.98735e-11
3.1176e-11
3.42552e-11
2.96855e-11
-1.75974e-11
1.82797e-11
3.08178e-11
-2.90505e-11
2.84959e-11
2.01546e-11
-2.81317e-11
2.74031e-11
2.29672e-11
-2.67266e-11
2.58044e-11
2.60861e-11
-2.48363e-11
2.36218e-11
2.93703e-11
-2.22989e-11
2.07508e-11
3.27321e-11
-1.90462e-11
1.71614e-11
3.59633e-11
-1.50998e-11
1.28872e-11
3.88764e-11
-1.0512e-11
8.01436e-12
4.11989e-11
-5.40196e-12
2.7217e-12
4.26837e-11
5.94763e-11
2.50007e-14
5.94809e-11
7.53982e-14
5.94888e-11
1.2699e-13
5.94999e-11
1.80596e-13
5.95146e-11
2.37065e-13
5.95329e-11
2.97298e-13
5.95552e-11
3.62254e-13
5.95818e-11
4.32972e-13
5.96131e-11
5.10587e-13
5.96495e-11
5.96348e-13
5.96916e-11
6.91643e-13
5.97401e-11
7.98019e-13
5.97955e-11
9.17214e-13
5.98588e-11
1.05119e-12
5.99307e-11
1.20215e-12
6.00122e-11
1.37261e-12
6.01046e-11
1.56545e-12
6.0209e-11
1.78391e-12
6.03268e-11
2.03173e-12
6.04593e-11
2.3132e-12
6.06084e-11
2.63322e-12
6.07754e-11
2.99749e-12
6.09628e-11
3.41248e-12
6.11714e-11
3.88588e-12
6.14047e-11
4.42622e-12
6.16621e-11
5.04412e-12
6.19489e-11
5.75072e-12
6.2261e-11
6.56113e-12
6.26073e-11
7.48948e-12
6.29757e-11
8.55836e-12
6.33824e-11
9.78415e-12
6.37986e-11
1.12033e-11
6.42556e-11
1.28295e-11
6.46881e-11
1.47296e-11
6.51657e-11
1.68922e-11
6.55341e-11
1.9467e-11
6.59827e-11
2.2322e-11
6.60931e-11
2.58971e-11
6.65235e-11
2.94949e-11
3.4046e-11
3.48054e-11
3.18313e-11
-1.84421e-11
1.88555e-11
3.38488e-11
-3.15848e-11
3.11794e-11
-2.09677e-11
2.12792e-11
-3.09311e-11
3.0356e-11
-2.39804e-11
2.45064e-11
-2.98009e-11
2.89804e-11
-2.73221e-11
2.81251e-11
-2.8083e-11
2.69087e-11
-3.08872e-11
3.20659e-11
-2.56088e-11
2.39643e-11
-3.45348e-11
3.61961e-11
-2.21079e-11
2.00524e-11
-3.81488e-11
4.02125e-11
-1.77497e-11
1.52371e-11
-4.14251e-11
4.39375e-11
-1.24934e-11
9.56376e-12
-4.40338e-11
4.69613e-11
-6.4687e-12
3.26452e-12
-4.56671e-11
4.88746e-11
5.95256e-11
2.30711e-14
5.95314e-11
6.95799e-14
5.95412e-11
1.17194e-13
5.95551e-11
1.66671e-13
5.95734e-11
2.18799e-13
5.95963e-11
2.74409e-13
5.96241e-11
3.34394e-13
5.96574e-11
3.99715e-13
5.96966e-11
4.71427e-13
5.97422e-11
5.50691e-13
5.97951e-11
6.38798e-13
5.98559e-11
7.3719e-13
5.99256e-11
8.4749e-13
6.00053e-11
9.71528e-13
6.00961e-11
1.11138e-12
6.01993e-11
1.2694e-12
6.03165e-11
1.44829e-12
6.04493e-11
1.65112e-12
6.05996e-11
1.88142e-12
6.07695e-11
2.14329e-12
6.09614e-11
2.44136e-12
6.11777e-11
2.78115e-12
6.14216e-11
3.16878e-12
6.16954e-11
3.61187e-12
6.20038e-11
4.11845e-12
6.23478e-11
4.69939e-12
6.27351e-11
5.36489e-12
6.31631e-11
6.13142e-12
6.36451e-11
7.01081e-12
6.41695e-11
8.03008e-12
6.47612e-11
9.19947e-12
6.53881e-11
1.0568e-11
6.60992e-11
1.21328e-11
6.6818e-11
1.39936e-11
6.76411e-11
1.6097e-11
6.84042e-11
1.86705e-11
6.92841e-11
2.14932e-11
6.99769e-11
2.51429e-11
7.07064e-11
2.88517e-11
3.68429e-11
3.4248e-11
3.43204e-11
-1.88406e-11
1.89314e-11
3.68967e-11
-3.44525e-11
3.4259e-11
-2.18108e-11
2.19502e-11
-3.41835e-11
3.38218e-11
-2.52342e-11
2.55841e-11
-3.34387e-11
3.28144e-11
-2.91259e-11
2.97707e-11
-3.2063e-11
3.10314e-11
-3.34204e-11
3.45013e-11
-2.99198e-11
2.81019e-11
-3.7805e-11
3.97015e-11
-2.59766e-11
2.3795e-11
-4.24441e-11
4.46688e-11
-2.12399e-11
1.83951e-11
-4.67483e-11
4.96115e-11
-1.51957e-11
1.17044e-11
-5.02507e-11
5.37488e-11
-7.95347e-12
4.02484e-12
-5.24573e-11
5.63916e-11
5.95705e-11
2.07874e-14
5.95774e-11
6.26932e-14
5.9589e-11
1.05597e-13
5.96055e-11
1.50184e-13
5.96271e-11
1.97165e-13
5.96542e-11
2.47293e-13
5.96873e-11
3.01374e-13
5.97267e-11
3.6028e-13
5.97732e-11
4.24966e-13
5.98274e-11
4.96484e-13
5.98902e-11
5.76008e-13
5.99625e-11
6.64848e-13
6.00455e-11
7.64481e-13
6.01405e-11
8.76577e-13
6.02489e-11
1.00303e-12
6.03723e-11
1.146e-12
6.05126e-11
1.30796e-12
6.0672e-11
1.49174e-12
6.08529e-11
1.70058e-12
6.10578e-11
1.93829e-12
6.12901e-11
2.20916e-12
6.15528e-11
2.51835e-12
6.18502e-11
2.87153e-12
6.21858e-11
3.276e-12
6.25655e-11
3.73913e-12
6.29925e-11
4.27164e-12
6.34756e-11
4.88269e-12
6.40161e-11
5.58925e-12
6.46277e-11
6.40112e-12
6.53067e-11
7.34771e-12
6.60752e-11
8.43475e-12
6.69179e-11
9.71877e-12
6.78717e-11
1.1186e-11
6.88972e-11
1.29562e-11
7.00564e-11
1.49506e-11
7.12615e-11
1.74443e-11
7.26135e-11
2.01648e-11
7.39414e-11
2.37776e-11
7.53598e-11
2.7478e-11
3.96431e-11
3.28813e-11
3.70182e-11
-1.87139e-11
1.84814e-11
3.99688e-11
-3.76277e-11
3.77e-11
-2.21603e-11
2.20571e-11
-3.78773e-11
3.78097e-11
-2.59879e-11
2.60637e-11
-3.76748e-11
3.73823e-11
-3.04946e-11
3.08269e-11
-3.67901e-11
3.6243e-11
-3.58217e-11
3.64447e-11
-1.79553e-11
-2.15686e-11
1.72689e-11
2.1895e-11
-1.57384e-11
-2.50722e-11
1.50334e-11
2.55213e-11
-1.28244e-11
-2.80912e-11
1.18963e-11
2.88412e-11
-8.88556e-12
-3.05217e-11
7.71684e-12
3.15786e-11
-4.01462e-12
3.32123e-11
-3.19274e-11
2.68406e-12
5.96104e-11
1.81838e-14
5.96183e-11
5.48415e-14
5.96315e-11
9.23743e-14
5.96503e-11
1.31382e-13
5.9675e-11
1.72489e-13
5.97059e-11
2.16356e-13
5.97436e-11
2.6369e-13
5.97886e-11
3.15258e-13
5.98417e-11
3.71897e-13
5.99036e-11
4.34537e-13
5.99754e-11
5.04208e-13
6.00582e-11
5.82067e-13
6.01533e-11
6.69418e-13
6.02621e-11
7.67736e-13
6.03865e-11
8.78699e-13
6.05283e-11
1.00423e-12
6.06897e-11
1.1465e-12
6.08734e-11
1.30807e-12
6.10822e-11
1.49181e-12
6.13194e-11
1.70114e-12
6.15887e-11
1.93989e-12
6.18942e-11
2.21275e-12
6.22412e-11
2.5248e-12
6.26342e-11
2.88276e-12
6.30807e-11
3.29322e-12
6.35854e-11
3.76627e-12
6.41594e-11
4.30998e-12
6.48064e-11
4.94078e-12
6.55434e-11
5.6669e-12
6.63703e-11
6.51765e-12
6.73142e-11
7.49653e-12
6.83655e-11
8.66072e-12
6.95681e-11
9.99448e-12
7.08937e-11
1.16175e-11
7.24081e-11
1.34564e-11
7.4056e-11
1.57727e-11
7.59138e-11
1.83407e-11
7.79133e-11
2.17394e-11
8.00585e-11
2.53823e-11
4.24826e-11
3.05109e-11
3.98906e-11
-1.79983e-11
1.74155e-11
4.31295e-11
-4.10629e-11
4.14629e-11
-2.19029e-11
2.14818e-11
-4.19827e-11
4.22838e-11
-2.60557e-11
2.57672e-11
-4.25492e-11
4.26211e-11
-3.10517e-11
3.10154e-11
-4.24987e-11
4.21182e-11
-3.69307e-11
3.73623e-11
-2.17217e-11
-2.29435e-11
2.11133e-11
2.32165e-11
-1.95815e-11
-2.72241e-11
1.88767e-11
2.77529e-11
-1.64229e-11
-3.15506e-11
1.54013e-11
3.24805e-11
-1.17144e-11
-3.53497e-11
1.02735e-11
3.67426e-11
-5.40081e-12
3.94968e-11
-3.77497e-11
3.6359e-12
5.96464e-11
1.52998e-14
5.96551e-11
4.61438e-14
5.96698e-11
7.77256e-14
5.96906e-11
1.10551e-13
5.9718e-11
1.45146e-13
5.97523e-11
1.82068e-13
5.9794e-11
2.21914e-13
5.9844e-11
2.65331e-13
5.99028e-11
3.13028e-13
5.99716e-11
3.65789e-13
6.00513e-11
4.24488e-13
6.01433e-11
4.90105e-13
6.0249e-11
5.63744e-13
6.03701e-11
6.4666e-13
6.05085e-11
7.40278e-13
6.06665e-11
8.46232e-13
6.08466e-11
9.66388e-13
6.10518e-11
1.10292e-12
6.12854e-11
1.25828e-12
6.15511e-11
1.43542e-12
6.18534e-11
1.63763e-12
6.21971e-11
1.86897e-12
6.25883e-11
2.13382e-12
6.30327e-11
2.43806e-12
6.3539e-11
2.78734e-12
6.41139e-11
3.19073e-12
6.47697e-11
3.65501e-12
6.55139e-11
4.19525e-12
6.63645e-11
4.81809e-12
6.73283e-11
5.55098e-12
6.84326e-11
6.39563e-12
6.96816e-11
7.40644e-12
7.11155e-11
8.5667e-12
7.27332e-11
9.99052e-12
7.45909e-11
1.16093e-11
7.66804e-11
1.36677e-11
7.90669e-11
1.59719e-11
8.17443e-11
1.90375e-11
8.47398e-11
2.24148e-11
4.52727e-11
2.71135e-11
4.28275e-11
-1.66246e-11
1.56827e-11
4.62604e-11
-4.46519e-11
4.54473e-11
-2.09195e-11
2.01051e-11
-4.64006e-11
4.71851e-11
-2.52863e-11
2.4511e-11
-4.79939e-11
4.86369e-11
-3.07293e-11
3.01117e-11
-4.91736e-11
4.94419e-11
-3.74785e-11
3.72416e-11
-2.60787e-11
-2.38668e-11
2.56499e-11
2.39796e-11
-2.46156e-11
-2.93467e-11
2.40165e-11
2.98079e-11
-2.16853e-11
-3.55233e-11
2.05949e-11
3.6564e-11
-1.62093e-11
-4.15653e-11
1.4364e-11
4.33989e-11
-7.74992e-12
4.82664e-11
-4.57623e-11
5.24472e-12
5.96762e-11
1.21793e-14
5.96857e-11
3.67329e-14
5.97015e-11
6.18746e-14
5.9724e-11
8.80075e-14
5.97536e-11
1.15552e-13
5.97908e-11
1.44952e-13
5.9836e-11
1.76684e-13
5.98901e-11
2.11264e-13
5.99538e-11
2.4926e-13
6.00283e-11
2.91298e-13
6.01148e-11
3.38076e-13
6.02145e-11
3.90379e-13
6.03291e-11
4.49093e-13
6.04606e-11
5.15224e-13
6.0611e-11
5.89914e-13
6.07827e-11
6.74479e-13
6.09787e-11
7.70421e-13
6.12021e-11
8.79489e-13
6.14568e-11
1.00368e-12
6.17469e-11
1.14536e-12
6.20774e-11
1.3072e-12
6.24538e-11
1.49252e-12
6.28829e-11
1.70486e-12
6.33717e-11
1.94908e-12
6.39298e-11
2.22976e-12
6.45656e-11
2.55443e-12
6.5293e-11
2.92862e-12
6.61221e-11
3.36501e-12
6.70734e-11
3.86897e-12
6.81582e-11
4.46378e-12
6.94071e-11
5.15097e-12
7.08324e-11
5.97635e-12
7.24791e-11
6.9278e-12
7.43614e-11
8.09942e-12
7.65411e-11
9.4428e-12
7.90415e-11
1.11527e-11
8.19332e-11
1.31004e-11
8.52723e-11
1.56769e-11
8.91027e-11
1.86107e-11
4.78716e-11
2.26278e-11
4.56882e-11
-1.45467e-11
1.3238e-11
4.92155e-11
-4.82272e-11
4.94778e-11
-1.90892e-11
1.78196e-11
-5.09377e-11
5.23194e-11
-2.34618e-11
2.20844e-11
-5.38101e-11
5.52381e-11
-2.91263e-11
2.77144e-11
-5.66715e-11
5.79662e-11
-3.65242e-11
3.52482e-11
-3.12896e-11
-2.38824e-11
3.12033e-11
2.36711e-11
-3.12686e-11
-3.07961e-11
3.10116e-11
3.09277e-11
-2.9649e-11
-3.9544e-11
2.88596e-11
4.02883e-11
-2.37117e-11
-4.95485e-11
2.1426e-11
5.18596e-11
-1.21956e-11
6.14002e-11
-5.7541e-11
8.34975e-12
5.96994e-11
8.87055e-15
5.97093e-11
2.67538e-14
5.97261e-11
4.50658e-14
5.97501e-11
6.41006e-14
5.97814e-11
8.41647e-14
5.98208e-11
1.05582e-13
5.98688e-11
1.287e-13
5.99262e-11
1.53897e-13
5.99939e-11
1.81585e-13
6.00729e-11
2.12223e-13
6.01647e-11
2.46322e-13
6.02706e-11
2.84455e-13
6.03925e-11
3.2727e-13
6.05322e-11
3.75505e-13
6.06921e-11
4.29997e-13
6.08749e-11
4.91713e-13
6.10836e-11
5.61753e-13
6.13217e-11
6.41407e-13
6.15933e-11
7.32139e-13
6.19029e-11
8.35707e-13
6.22561e-11
9.54072e-13
6.26589e-11
1.0897e-12
6.31187e-11
1.24521e-12
6.36434e-11
1.42422e-12
6.42434e-11
1.63013e-12
6.49287e-11
1.86862e-12
6.57144e-11
2.14374e-12
6.66131e-11
2.46519e-12
6.76468e-11
2.83683e-12
6.88318e-11
3.27662e-12
7.02001e-11
3.78544e-12
7.17738e-11
4.3988e-12
7.35992e-11
5.10731e-12
7.57082e-11
5.98379e-12
7.81662e-11
6.99273e-12
8.1026e-11
8.28288e-12
8.43731e-11
9.76512e-12
8.83055e-11
1.17307e-11
9.29239e-11
1.40082e-11
5.01035e-11
1.71201e-11
4.83086e-11
-1.17565e-11
1.01088e-11
5.17779e-11
-5.15638e-11
5.32943e-11
-1.63181e-11
1.457e-11
-5.52956e-11
5.73449e-11
-2.03819e-11
1.83334e-11
-5.96168e-11
6.19932e-11
-2.58415e-11
2.34748e-11
-6.45506e-11
6.72112e-11
-3.332e-11
3.06707e-11
-3.71598e-11
-2.2282e-11
3.76302e-11
2.15475e-11
-3.96129e-11
-3.04043e-11
4.00863e-11
2.98187e-11
-4.10924e-11
-4.24383e-11
4.24868e-11