/*--------------------------------*- C++ -*----------------------------------*\
| =========                 |                                                 |
| \\      /  F ield         | foam-extend: Open Source CFD                    |
|  \\    /   O peration     | Version:     4.0                                |
|   \\  /    A nd           | Web:         http://www.foam-extend.org         |
|    \\/     M anipulation  |                                                 |
\*---------------------------------------------------------------------------*/
FoamFile
{
    version     2.0;
    format      ascii;
    class       volVectorField;
    location    "0.0011";
    object      U;
}
// * * * * * * * * * * * * * * * * * * * * * * * * * * * * * * * * * * * * * //

dimensions      [0 1 -1 0 0 0 0];

internalField   nonuniform List<vector> 
28770
(
(0.0020026 5.84368e-08 0)
(0.00200237 1.76202e-07 0)
(0.00200189 2.96657e-07 0)
(0.00200116 4.21635e-07 0)
(0.00200017 5.53035e-07 0)
(0.00199891 6.92846e-07 0)
(0.00199735 8.43172e-07 0)
(0.00199548 1.00626e-06 0)
(0.00199325 1.18455e-06 0)
(0.00199065 1.38065e-06 0)
(0.00198763 1.59744e-06 0)
(0.00198415 1.83805e-06 0)
(0.00198015 2.10592e-06 0)
(0.00197558 2.40483e-06 0)
(0.00197036 2.73892e-06 0)
(0.00196443 3.11277e-06 0)
(0.00195769 3.53137e-06 0)
(0.00195005 4.00021e-06 0)
(0.0019414 4.52529e-06 0)
(0.00193163 5.11306e-06 0)
(0.00192058 5.77069e-06 0)
(0.00190813 6.50555e-06 0)
(0.00189409 7.32612e-06 0)
(0.00187829 8.24032e-06 0)
(0.00186053 9.25823e-06 0)
(0.00184059 1.03874e-05 0)
(0.00181821 1.164e-05 0)
(0.00179317 1.3021e-05 0)
(0.00176516 1.45462e-05 0)
(0.00173392 1.62138e-05 0)
(0.00169908 1.80457e-05 0)
(0.00166039 2.00264e-05 0)
(0.00161744 2.21882e-05 0)
(0.00156998 2.44916e-05 0)
(0.00151758 2.6985e-05 0)
(0.00146001 2.95928e-05 0)
(0.00139688 3.23836e-05 0)
(0.001328 3.52377e-05 0)
(0.00125311 3.82394e-05 0)
(0.00117207 4.12309e-05 0)
(0.00108482 4.42933e-05 0)
(0.000991338 4.7255e-05 0)
(0.000891841 5.01677e-05 0)
(0.00078649 5.28757e-05 0)
(0.000675782 5.539e-05 0)
(0.000560142 5.7587e-05 0)
(0.000440335 5.94482e-05 0)
(0.000317057 6.08877e-05 0)
(0.000191286 6.18806e-05 0)
(6.39258e-05 6.23825e-05 0)
(0.00200283 1.74443e-07 0)
(0.0020026 5.25993e-07 0)
(0.00200213 8.85573e-07 0)
(0.00200141 1.25866e-06 0)
(0.00200044 1.65093e-06 0)
(0.00199919 2.06832e-06 0)
(0.00199766 2.51711e-06 0)
(0.00199581 3.00403e-06 0)
(0.00199362 3.53632e-06 0)
(0.00199106 4.12185e-06 0)
(0.00198808 4.76917e-06 0)
(0.00198465 5.48766e-06 0)
(0.00198071 6.2876e-06 0)
(0.0019762 7.18029e-06 0)
(0.00197106 8.17815e-06 0)
(0.00196521 9.29481e-06 0)
(0.00195856 1.05453e-05 0)
(0.00195103 1.1946e-05 0)
(0.00194249 1.35149e-05 0)
(0.00193285 1.52713e-05 0)
(0.00192195 1.72367e-05 0)
(0.00190965 1.94332e-05 0)
(0.00189579 2.18862e-05 0)
(0.00188019 2.46196e-05 0)
(0.00186263 2.76636e-05 0)
(0.00184292 3.10406e-05 0)
(0.00182079 3.47875e-05 0)
(0.00179602 3.89193e-05 0)
(0.00176829 4.34828e-05 0)
(0.00173734 4.8474e-05 0)
(0.00170281 5.39562e-05 0)
(0.00166445 5.98877e-05 0)
(0.00162181 6.63574e-05 0)
(0.00157468 7.32618e-05 0)
(0.00152257 8.07229e-05 0)
(0.00146529 8.85524e-05 0)
(0.0014024 9.69025e-05 0)
(0.00133373 0.000105492 0)
(0.00125898 0.000114479 0)
(0.00117799 0.000123509 0)
(0.00109072 0.000132698 0)
(0.00099709 0.000141663 0)
(0.000897345 0.000150438 0)
(0.000791603 0.000158655 0)
(0.000680395 0.000166261 0)
(0.000564116 0.00017294 0)
(0.000443567 0.000178588 0)
(0.000319439 0.000182969 0)
(0.000192749 0.000185988 0)
(6.44173e-05 0.000187516 0)
(0.00200329 2.87878e-07 0)
(0.00200306 8.68032e-07 0)
(0.0020026 1.46145e-06 0)
(0.00200191 2.07718e-06 0)
(0.00200096 2.72458e-06 0)
(0.00199976 3.41347e-06 0)
(0.00199827 4.15425e-06 0)
(0.00199647 4.95801e-06 0)
(0.00199435 5.83674e-06 0)
(0.00199186 6.80343e-06 0)
(0.00198897 7.87225e-06 0)
(0.00198564 9.05872e-06 0)
(0.00198181 1.03798e-05 0)
(0.00197743 1.18544e-05 0)
(0.00197243 1.35029e-05 0)
(0.00196675 1.5348e-05 0)
(0.00196029 1.74146e-05 0)
(0.00195296 1.97299e-05 0)
(0.00194466 2.23239e-05 0)
(0.00193527 2.52288e-05 0)
(0.00192466 2.84804e-05 0)
(0.00191268 3.21156e-05 0)
(0.00189917 3.6177e-05 0)
(0.00188395 4.07044e-05 0)
(0.00186682 4.5749e-05 0)
(0.00184756 5.13483e-05 0)
(0.00182593 5.75655e-05 0)
(0.00180169 6.44249e-05 0)
(0.00177451 7.2009e-05 0)
(0.00174417 8.03078e-05 0)
(0.00171026 8.94372e-05 0)
(0.00167254 9.93162e-05 0)
(0.00163054 0.000110118 0)
(0.00158405 0.000121638 0)
(0.00153255 0.000134136 0)
(0.00147585 0.000147222 0)
(0.00141346 0.000161262 0)
(0.00134521 0.000175643 0)
(0.00127075 0.000190807 0)
(0.0011899 0.000205956 0)
(0.00110259 0.0002215 0)
(0.00100871 0.000236581 0)
(0.000908479 0.00025144 0)
(0.000801983 0.000265302 0)
(0.000689769 0.000278193 0)
(0.000572212 0.000289489 0)
(0.000450155 0.000299071 0)
(0.000324303 0.000306496 0)
(0.000195738 0.000311621 0)
(6.54226e-05 0.000314215 0)
(0.00200397 3.9707e-07 0)
(0.00200375 1.19729e-06 0)
(0.00200331 2.01581e-06 0)
(0.00200265 2.86515e-06 0)
(0.00200174 3.75824e-06 0)
(0.00200059 4.70862e-06 0)
(0.00199917 5.73067e-06 0)
(0.00199746 6.83974e-06 0)
(0.00199543 8.05239e-06 0)
(0.00199305 9.3866e-06 0)
(0.00199029 1.0862e-05 0)
(0.00198711 1.25e-05 0)
(0.00198345 1.43244e-05 0)
(0.00197926 1.63609e-05 0)
(0.00197448 1.86383e-05 0)
(0.00196904 2.11879e-05 0)
(0.00196285 2.40444e-05 0)
(0.00195583 2.72458e-05 0)
(0.00194788 3.08338e-05 0)
(0.00193887 3.48533e-05 0)
(0.00192869 3.93546e-05 0)
(0.00191719 4.43892e-05 0)
(0.0019042 5.00174e-05 0)
(0.00188956 5.62949e-05 0)
(0.00187305 6.32943e-05 0)
(0.00185449 7.10687e-05 0)
(0.0018336 7.97084e-05 0)
(0.00181016 8.92481e-05 0)
(0.00178384 9.98069e-05 0)
(0.00175441 0.000111371 0)
(0.00172143 0.000124109 0)
(0.0016847 0.000137908 0)
(0.00164367 0.000153017 0)
(0.0015982 0.000169156 0)
(0.00154762 0.000186684 0)
(0.00149185 0.000205086 0)
(0.00143023 0.000224834 0)
(0.00136266 0.000245151 0)
(0.00128866 0.000266556 0)
(0.00120805 0.00028807 0)
(0.0011207 0.000310113 0)
(0.00102641 0.000331647 0)
(0.000925468 0.000352844 0)
(0.000817799 0.000372734 0)
(0.000704078 0.000391229 0)
(0.000584559 0.000407506 0)
(0.00046022 0.000421316 0)
(0.000331729 0.000432048 0)
(0.000200308 0.000439457 0)
(6.69568e-05 0.000443212 0)
(0.00200485 5.00392e-07 0)
(0.00200465 1.50884e-06 0)
(0.00200424 2.54041e-06 0)
(0.00200361 3.61086e-06 0)
(0.00200277 4.73652e-06 0)
(0.00200169 5.93453e-06 0)
(0.00200035 7.22301e-06 0)
(0.00199875 8.62139e-06 0)
(0.00199684 1.01506e-05 0)
(0.00199461 1.18334e-05 0)
(0.00199202 1.36946e-05 0)
(0.00198903 1.57615e-05 0)
(0.00198559 1.8064e-05 0)
(0.00198165 2.0635e-05 0)
(0.00197716 2.35109e-05 0)
(0.00197204 2.67318e-05 0)
(0.00196622 3.03417e-05 0)
(0.00195961 3.43891e-05 0)
(0.00195211 3.89275e-05 0)
(0.00194361 4.40144e-05 0)
(0.001934 4.97146e-05 0)
(0.00192312 5.60942e-05 0)
(0.00191083 6.32316e-05 0)
(0.00189695 7.11986e-05 0)
(0.00188128 8.00909e-05 0)
(0.00186364 8.99768e-05 0)
(0.00184373 0.000100978 0)
(0.00182137 0.000113137 0)
(0.00179618 0.000126622 0)
(0.00176797 0.000141402 0)
(0.00173624 0.00015773 0)
(0.00170084 0.000175423 0)
(0.00166113 0.000194884 0)
(0.00161701 0.000215648 0)
(0.00156773 0.000238362 0)
(0.00151321 0.000262121 0)
(0.00145269 0.000287896 0)
(0.00138606 0.000314226 0)
(0.00131277 0.000342369 0)
(0.00123255 0.000370382 0)
(0.00114526 0.000399528 0)
(0.00105055 0.000427749 0)
(0.000948711 0.00045586 0)
(0.000839569 0.000482107 0)
(0.000723816 0.000506706 0)
(0.000601672 0.000528314 0)
(0.000474186 0.000546738 0)
(0.000342067 0.000561051 0)
(0.00020667 0.000570959 0)
(6.90993e-05 0.000575979 0)
(0.00200593 5.96312e-07 0)
(0.00200575 1.79809e-06 0)
(0.00200537 3.02746e-06 0)
(0.0020048 4.30325e-06 0)
(0.00200402 5.64499e-06 0)
(0.00200303 7.0731e-06 0)
(0.0020018 8.60929e-06 0)
(0.00200032 1.02768e-05 0)
(0.00199857 1.21006e-05 0)
(0.00199652 1.4108e-05 0)
(0.00199414 1.63289e-05 0)
(0.00199138 1.87957e-05 0)
(0.00198822 2.15446e-05 0)
(0.00198459 2.46151e-05 0)
(0.00198045 2.8051e-05 0)
(0.00197572 3.19006e-05 0)
(0.00197035 3.62172e-05 0)
(0.00196424 4.10595e-05 0)
(0.0019573 4.64923e-05 0)
(0.00194944 5.25857e-05 0)
(0.00194052 5.94185e-05 0)
(0.00193042 6.70719e-05 0)
(0.00191899 7.56422e-05 0)
(0.00190607 8.52176e-05 0)
(0.00189144 9.59175e-05 0)
(0.00187494 0.000107826 0)
(0.00185627 0.000121098 0)
(0.00183527 0.000135786 0)
(0.00181151 0.000152104 0)
(0.00178487 0.000170018 0)
(0.00175474 0.000189849 0)
(0.00172108 0.000211382 0)
(0.00168306 0.000235117 0)
(0.00164077 0.000260516 0)
(0.00159313 0.000288345 0)
(0.00154036 0.000317594 0)
(0.00148125 0.000349327 0)
(0.001416 0.000381998 0)
(0.00134364 0.00041684 0)
(0.00126401 0.000451914 0)
(0.00117687 0.00048827 0)
(0.00108156 0.000523923 0)
(0.000978693 0.000559353 0)
(0.000867584 0.000592781 0)
(0.000749322 0.000624092 0)
(0.000623757 0.000651802 0)
(0.000492273 0.000675439 0)
(0.000355444 0.00069389 0)
(0.000214924 0.000706668 0)
(7.18717e-05 0.000713158 0)
(0.0020072 6.83399e-07 0)
(0.00200703 2.06071e-06 0)
(0.00200669 3.46971e-06 0)
(0.00200618 4.93203e-06 0)
(0.00200548 6.47009e-06 0)
(0.00200459 8.10739e-06 0)
(0.00200349 9.86889e-06 0)
(0.00200217 1.17813e-05 0)
(0.00200059 1.38735e-05 0)
(0.00199875 1.61769e-05 0)
(0.00199661 1.87258e-05 0)
(0.00199414 2.1558e-05 0)
(0.00199129 2.4715e-05 0)
(0.00198803 2.82429e-05 0)
(0.00198429 3.21923e-05 0)
(0.00198004 3.66194e-05 0)
(0.00197519 4.15864e-05 0)
(0.00196967 4.71615e-05 0)
(0.0019634 5.34209e-05 0)
(0.00195627 6.04467e-05 0)
(0.00194818 6.83321e-05 0)
(0.00193901 7.71727e-05 0)
(0.0019286 8.70834e-05 0)
(0.00191681 9.81693e-05 0)
(0.00190342 0.000110575 0)
(0.00188829 0.000124401 0)
(0.00187111 0.000139839 0)
(0.00185173 0.00015695 0)
(0.0018297 0.000176013 0)
(0.00180493 0.000196965 0)
(0.00177674 0.000220262 0)
(0.00174517 0.00024556 0)
(0.00170925 0.000273649 0)
(0.00166913 0.000303629 0)
(0.00162362 0.000336884 0)
(0.00157292 0.000371566 0)
(0.00151576 0.000409943 0)
(0.00145217 0.000448867 0)
(0.00138123 0.000491537 0)
(0.0013025 0.00053361 0)
(0.00121577 0.000578542 0)
(0.00112015 0.000621804 0)
(0.00101613 0.000665712 0)
(0.00090296 0.000706766 0)
(0.000781608 0.000745721 0)
(0.00065195 0.000780111 0)
(0.000515398 0.000809668 0)
(0.000372645 0.000832741 0)
(0.000225536 0.000848784 0)
(7.54543e-05 0.000856932 0)
(0.00200862 7.60333e-07 0)
(0.00200847 2.29272e-06 0)
(0.00200818 3.86044e-06 0)
(0.00200774 5.48764e-06 0)
(0.00200713 7.19932e-06 0)
(0.00200635 9.02173e-06 0)
(0.0020054 1.09827e-05 0)
(0.00200425 1.31122e-05 0)
(0.00200288 1.54424e-05 0)
(0.00200127 1.80086e-05 0)
(0.00199941 2.08492e-05 0)
(0.00199725 2.40066e-05 0)
(0.00199476 2.75276e-05 0)
(0.00199191 3.14638e-05 0)
(0.00198865 3.58726e-05 0)
(0.00198492 4.08173e-05 0)
(0.00198067 4.63686e-05 0)
(0.00197583 5.26037e-05 0)
(0.00197031 5.96097e-05 0)
(0.00196404 6.74801e-05 0)
(0.0019569 7.6322e-05 0)
(0.00194878 8.62456e-05 0)
(0.00193955 9.73839e-05 0)
(0.00192907 0.000109859 0)
(0.00191713 0.000123841 0)
(0.0019036 0.000139448 0)
(0.00188815 0.000156909 0)
(0.00187069 0.000176297 0)
(0.0018507 0.000197947 0)
(0.0018282 0.000221802 0)
(0.00180232 0.000248392 0)
(0.00177335 0.000277364 0)
(0.00173992 0.000309601 0)
(0.00170269 0.000344194 0)
(0.00165965 0.00038258 0)
(0.00161189 0.000422989 0)
(0.00155694 0.000467546 0)
(0.0014959 0.00051345 0)
(0.00142662 0.000563319 0)
(0.00134921 0.000613622 0)
(0.00126323 0.000666671 0)
(0.00116692 0.000719072 0)
(0.00106189 0.000771838 0)
(0.000945927 0.000822114 0)
(0.000821139 0.000869691 0)
(0.000686373 0.00091221 0)
(0.000543807 0.000948764 0)
(0.000393746 0.000977519 0)
(0.000238612 0.000997523 0)
(7.98501e-05 0.00100772 0)
(0.00201019 8.25947e-07 0)
(0.00201006 2.49061e-06 0)
(0.00200982 4.19376e-06 0)
(0.00200945 5.96168e-06 0)
(0.00200894 7.82165e-06 0)
(0.00200829 9.80227e-06 0)
(0.0020075 1.19339e-05 0)
(0.00200653 1.42493e-05 0)
(0.00200539 1.67836e-05 0)
(0.00200405 1.95754e-05 0)
(0.00200248 2.26668e-05 0)
(0.00200068 2.61043e-05 0)
(0.00199859 2.99394e-05 0)
(0.0019962 3.42288e-05 0)
(0.00199345 3.90359e-05 0)
(0.00199031 4.44306e-05 0)
(0.00198673 5.04911e-05 0)
(0.00198263 5.73035e-05 0)
(0.00197796 6.49648e-05 0)
(0.00197264 7.35796e-05 0)
(0.00196656 8.32684e-05 0)
(0.00195963 9.41555e-05 0)
(0.00195172 0.000106392 0)
(0.00194271 0.000120118 0)
(0.00193239 0.00013553 0)
(0.00192067 0.000152762 0)
(0.00190719 0.00017209 0)
(0.00189191 0.00019359 0)
(0.00187425 0.000217688 0)
(0.00185432 0.000244276 0)
(0.00183115 0.000274091 0)
(0.0018051 0.000306562 0)
(0.00177468 0.000343081 0)
(0.00174059 0.000382061 0)
(0.00170077 0.000426171 0)
(0.00165611 0.000471904 0)
(0.00160433 0.000524085 0)
(0.00154595 0.000576218 0)
(0.00147932 0.000635874 0)
(0.00140369 0.000693408 0)
(0.00131902 0.000757764 0)
(0.00122313 0.000818943 0)
(0.00111703 0.000882742 0)
(0.000998773 0.00094263 0)
(0.000869825 0.00100038 0)
(0.000729375 0.00105187 0)
(0.000579347 0.00109658 0)
(0.000420387 0.0011318 0)
(0.000255111 0.00115643 0)
(8.54436e-05 0.001169 0)
(0.00201187 8.79237e-07 0)
(0.00201177 2.65134e-06 0)
(0.00201158 4.46452e-06 0)
(0.00201129 6.34687e-06 0)
(0.00201089 8.32749e-06 0)
(0.00201038 1.0437e-05 0)
(0.00200975 1.27078e-05 0)
(0.00200899 1.5175e-05 0)
(0.00200809 1.78763e-05 0)
(0.00200703 2.08529e-05 0)
(0.0020058 2.41504e-05 0)
(0.00200437 2.78185e-05 0)
(0.00200272 3.19127e-05 0)
(0.00200082 3.64945e-05 0)
(0.00199864 4.16322e-05 0)
(0.00199614 4.74017e-05 0)
(0.00199328 5.38881e-05 0)
(0.00199 6.11853e-05 0)
(0.00198625 6.93993e-05 0)
(0.00198196 7.86453e-05 0)
(0.00197704 8.90561e-05 0)
(0.00197143 0.00010077 0)
(0.00196497 0.000113954 0)
(0.0019576 0.000128768 0)
(0.00194909 0.00014543 0)
(0.0019394 0.0001641 0)
(0.00192812 0.000185084 0)
(0.00191534 0.00020849 0)
(0.00190033 0.000234787 0)
(0.00188343 0.000263908 0)
(0.00186331 0.000296636 0)
(0.00184091 0.000332482 0)
(0.00181384 0.000372824 0)
(0.00178405 0.000416306 0)
(0.00174762 0.000465337 0)
(0.00170777 0.00051707 0)
(0.00165909 0.000575377 0)
(0.00160536 0.000635432 0)
(0.00154137 0.000702424 0)
(0.00146856 0.000770074 0)
(0.00138615 0.000843142 0)
(0.00128929 0.000916276 0)
(0.001183 0.000991108 0)
(0.00106111 0.0010636 0)
(0.000928106 0.00113308 0)
(0.000780575 0.00119616 0)
(0.000622073 0.00125097 0)
(0.000452348 0.00129463 0)
(0.000275035 0.0013252 0)
(9.21596e-05 0.0013409 0)
(0.00201364 9.19363e-07 0)
(0.00201357 2.77238e-06 0)
(0.00201344 4.66848e-06 0)
(0.00201323 6.63712e-06 0)
(0.00201295 8.70885e-06 0)
(0.00201258 1.09158e-05 0)
(0.00201214 1.32921e-05 0)
(0.00201159 1.58745e-05 0)
(0.00201095 1.87029e-05 0)
(0.00201019 2.18207e-05 0)
(0.0020093 2.52759e-05 0)
(0.00200828 2.91212e-05 0)
(0.00200709 3.34153e-05 0)
(0.00200571 3.82235e-05 0)
(0.00200413 4.36184e-05 0)
(0.00200231 4.9681e-05 0)
(0.00200022 5.65023e-05 0)
(0.00199782 6.41831e-05 0)
(0.00199506 7.28375e-05 0)
(0.00199188 8.25901e-05 0)
(0.00198822 9.3585e-05 0)
(0.00198401 0.000105973 0)
(0.00197913 0.00011994 0)
(0.00197353 0.000135658 0)
(0.00196699 0.000153376 0)
(0.0019595 0.00017327 0)
(0.00195065 0.000195694 0)
(0.00194058 0.000220762 0)
(0.00192852 0.000249046 0)
(0.00191488 0.000280423 0)
(0.00189829 0.000315941 0)
(0.0018797 0.000354811 0)
(0.00185676 0.000399167 0)
(0.00183118 0.000446581 0)
(0.00179944 0.00050156 0)
(0.00176386 0.000558101 0)
(0.00172023 0.000625429 0)
(0.00167035 0.000690879 0)
(0.00161115 0.000771199 0)
(0.00154148 0.000844917 0)
(0.00146218 0.000934712 0)
(0.00136801 0.00101785 0)
(0.00126128 0.00110737 0)
(0.00113779 0.00119251 0)
(0.000999621 0.00127599 0)
(0.000844815 0.00135196 0)
(0.000675772 0.00141866 0)
(0.000493069 0.00147205 0)
(0.00030041 0.00150963 0)
(0.00010081 0.00152898 0)
(0.00201548 9.45688e-07 0)
(0.00201544 2.85181e-06 0)
(0.00201536 4.80238e-06 0)
(0.00201524 6.8278e-06 0)
(0.00201508 8.95963e-06 0)
(0.00201487 1.1231e-05 0)
(0.00201461 1.36774e-05 0)
(0.00201429 1.63366e-05 0)
(0.00201391 1.925e-05 0)
(0.00201347 2.24628e-05 0)
(0.00201295 2.60247e-05 0)
(0.00201234 2.99906e-05 0)
(0.00201163 3.44216e-05 0)
(0.00201081 3.9386e-05 0)
(0.00200986 4.49599e-05 0)
(0.00200875 5.12282e-05 0)
(0.00200748 5.82867e-05 0)
(0.00200599 6.62419e-05 0)
(0.00200427 7.52147e-05 0)
(0.00200227 8.5338e-05 0)
(0.00199994 9.67654e-05 0)
(0.00199723 0.00010966 0)
(0.00199404 0.000124221 0)
(0.00199034 0.00014064 0)
(0.00198592 0.000159183 0)
(0.00198083 0.000180056 0)
(0.00197463 0.000203635 0)
(0.00196758 0.000230087 0)
(0.00195874 0.000259999 0)
(0.00194893 0.000293355 0)
(0.00193615 0.000331164 0)
(0.0019224 0.000372899 0)
(0.0019037 0.000420438 0)
(0.0018843 0.000472056 0)
(0.00185682 0.00053132 0)
(0.00182905 0.00059411 0)
(0.00178909 0.000666872 0)
(0.00174809 0.000741601 0)
(0.0016922 0.000828249 0)
(0.00162866 0.000915192 0)
(0.00155547 0.0010123 0)
(0.00145835 0.00111197 0)
(0.00135402 0.0012157 0)
(0.00122622 0.00131879 0)
(0.00108423 0.00141914 0)
(0.000920266 0.00151238 0)
(0.000739656 0.00159472 0)
(0.000541419 0.00166152 0)
(0.00033078 0.00170877 0)
(0.00011111 0.00173325 0)
(0.00201736 9.57772e-07 0)
(0.00201735 2.88829e-06 0)
(0.00201733 4.86397e-06 0)
(0.0020173 6.91571e-06 0)
(0.00201726 9.07557e-06 0)
(0.0020172 1.13773e-05 0)
(0.00201713 1.38569e-05 0)
(0.00201705 1.65531e-05 0)
(0.00201695 1.9508e-05 0)
(0.00201682 2.27678e-05 0)
(0.00201668 2.63832e-05 0)
(0.0020165 3.04106e-05 0)
(0.00201629 3.49129e-05 0)
(0.00201603 3.996e-05 0)
(0.00201573 4.56306e-05 0)
(0.00201536 5.20125e-05 0)
(0.00201492 5.9205e-05 0)
(0.0020144 6.7319e-05 0)
(0.00201376 7.64806e-05 0)
(0.00201298 8.68294e-05 0)
(0.00201204 9.8527e-05 0)
(0.00201089 0.000111747 0)
(0.00200947 0.000126701 0)
(0.00200776 0.000143596 0)
(0.00200558 0.000162717 0)
(0.00200302 0.000184295 0)
(0.00199964 0.000208739 0)
(0.00199577 0.000236242 0)
(0.00199047 0.000267469 0)
(0.00198456 0.000302389 0)
(0.00197618 0.000342244 0)
(0.00196712 0.000386267 0)
(0.00195385 0.00043711 0)
(0.00193975 0.000491897 0)
(0.00191895 0.00055682 0)
(0.00189659 0.000623433 0)
(0.00186465 0.00070659 0)
(0.00182836 0.000784417 0)
(0.00178113 0.000890706 0)
(0.0017217 0.000977605 0)
(0.00165486 0.00110406 0)
(0.00156717 0.00121517 0)
(0.0014638 0.0013367 0)
(0.001337 0.00145739 0)
(0.00118918 0.00157712 0)
(0.00101674 0.00169025 0)
(0.000821806 0.00179077 0)
(0.000604736 0.00187321 0)
(0.000370648 0.00193181 0)
(0.000124786 0.00196238 0)
(0.00201925 9.55388e-07 0)
(0.00201927 2.88115e-06 0)
(0.00201931 4.8521e-06 0)
(0.00201937 6.89916e-06 0)
(0.00201945 9.05445e-06 0)
(0.00201955 1.13518e-05 0)
(0.00201968 1.38273e-05 0)
(0.00201983 1.65198e-05 0)
(0.00202 1.94716e-05 0)
(0.0020202 2.27291e-05 0)
(0.00202043 2.63437e-05 0)
(0.00202069 3.03721e-05 0)
(0.00202098 3.48778e-05 0)
(0.0020213 3.99319e-05 0)
(0.00202166 4.56142e-05 0)
(0.00202205 5.20141e-05 0)
(0.00202246 5.92331e-05 0)
(0.00202291 6.73848e-05 0)
(0.00202338 7.65988e-05 0)
(0.00202386 8.70197e-05 0)
(0.00202434 9.88147e-05 0)
(0.00202482 0.000112166 0)
(0.00202522 0.000127293 0)
(0.00202561 0.000144421 0)
(0.00202577 0.000163843 0)
(0.00202589 0.000185823 0)
(0.00202549 0.000210778 0)
(0.00202509 0.000238973 0)
(0.00202351 0.000271047 0)
(0.00202214 0.00030715 0)
(0.00201828 0.000348377 0)
(0.00201529 0.000394428 0)
(0.00200713 0.000447409 0)
(0.00200152 0.000505711 0)
(0.00198561 0.000573748 0)
(0.00197571 0.000646551 0)
(0.00194673 0.000733661 0)
(0.00192837 0.000822499 0)
(0.00188136 0.00093215 0)
(0.00183758 0.00103789 0)
(0.00178809 0.00116234 0)
(0.00168615 0.00129722 0)
(0.00159119 0.00143951 0)
(0.00146163 0.00158588 0)
(0.00131224 0.00173124 0)
(0.00112946 0.00187056 0)
(0.000918803 0.00199695 0)
(0.000679521 0.00210221 0)
(0.0004181 0.0021779 0)
(0.000141049 0.00221762 0)
(0.00202112 9.38525e-07 0)
(0.00202117 2.83034e-06 0)
(0.00202126 4.76669e-06 0)
(0.00202141 6.77804e-06 0)
(0.00202162 8.89607e-06 0)
(0.00202188 1.11542e-05 0)
(0.00202219 1.35879e-05 0)
(0.00202258 1.62358e-05 0)
(0.00202303 1.91397e-05 0)
(0.00202355 2.23456e-05 0)
(0.00202416 2.59042e-05 0)
(0.00202485 2.98723e-05 0)
(0.00202565 3.43129e-05 0)
(0.00202654 3.92969e-05 0)
(0.00202756 4.49041e-05 0)
(0.0020287 5.12244e-05 0)
(0.00202998 5.83596e-05 0)
(0.0020314 6.64245e-05 0)
(0.00203298 7.55501e-05 0)
(0.00203474 8.5884e-05 0)
(0.00203666 9.75961e-05 0)
(0.00203878 0.000110875 0)
(0.00204105 0.000125945 0)
(0.00204355 0.000143044 0)
(0.00204612 0.000162473 0)
(0.00204898 0.000184525 0)
(0.00205169 0.00020962 0)
(0.00205478 0.000238083 0)
(0.00205722 0.000270554 0)
(0.00206028 0.000307292 0)
(0.00206164 0.000349394 0)
(0.00206408 0.000396715 0)
(0.00206281 0.000451484 0)
(0.00206345 0.00051203 0)
(0.00205685 0.00058381 0)
(0.00205317 0.000659787 0)
(0.00203693 0.00075598 0)
(0.00202272 0.000845653 0)
(0.00199203 0.000984291 0)
(0.0019471 0.00106589 0)
(0.00190878 0.00125678 0)
(0.00183856 0.00140874 0)
(0.00174645 0.00155961 0)
(0.00162264 0.00173217 0)
(0.00146793 0.00190475 0)
(0.00127691 0.00207729 0)
(0.00104862 0.00223316 0)
(0.000781912 0.00236484 0)
(0.000483652 0.00246027 0)
(0.000163679 0.00251091 0)
(0.00202294 9.07397e-07 0)
(0.00202302 2.73651e-06 0)
(0.00202317 4.6088e-06 0)
(0.00202341 6.55385e-06 0)
(0.00202373 8.60237e-06 0)
(0.00202414 1.07868e-05 0)
(0.00202465 1.31417e-05 0)
(0.00202526 1.57046e-05 0)
(0.00202598 1.85161e-05 0)
(0.00202683 2.16211e-05 0)
(0.0020278 2.50692e-05 0)
(0.00202892 2.89158e-05 0)
(0.00203021 3.32228e-05 0)
(0.00203167 3.80597e-05 0)
(0.00203334 4.3505e-05 0)
(0.00203522 4.96474e-05 0)
(0.00203735 5.65874e-05 0)
(0.00203974 6.44393e-05 0)
(0.00204243 7.33333e-05 0)
(0.00204545 8.34172e-05 0)
(0.00204881 9.4861e-05 0)
(0.00205258 0.000107857 0)
(0.00205672 0.000122629 0)
(0.00206137 0.000139428 0)
(0.00206639 0.000158551 0)
(0.00207206 0.000180322 0)
(0.00207793 0.000205149 0)
(0.00208475 0.000233435 0)
(0.00209128 0.000265765 0)
(0.00209934 0.000302595 0)
(0.00210584 0.000344842 0)
(0.00211525 0.000392862 0)
(0.00212004 0.000448318 0)
(0.00213109 0.000510862 0)
(0.00213029 0.000584213 0)
(0.00214429 0.000665025 0)
(0.00212872 0.000763821 0)
(0.00215192 0.000865155 0)
(0.00209701 0.00100572 0)
(0.00215929 0.00111882 0)
(0.00210425 0.00125707 0)
(0.00192966 0.00126018 0)
(0.00188006 0.00144443 0)
(0.00178795 0.00164816 0)
(0.00165612 0.0018598 0)
(0.00147598 0.0020762 0)
(0.00124387 0.00228859 0)
(0.000963148 0.00248227 0)
(0.000639723 0.00263893 0)
(0.000283989 0.00274397 0)
(0.00202469 8.62431e-07 0)
(0.00202479 2.60094e-06 0)
(0.002025 4.38061e-06 0)
(0.00202533 6.22963e-06 0)
(0.00202576 8.17731e-06 0)
(0.00202632 1.02546e-05 0)
(0.00202701 1.24946e-05 0)
(0.00202784 1.49329e-05 0)
(0.00202882 1.76087e-05 0)
(0.00202997 2.05648e-05 0)
(0.0020313 2.3849e-05 0)
(0.00203284 2.75143e-05 0)
(0.0020346 3.16204e-05 0)
(0.00203661 3.62343e-05 0)
(0.0020389 4.14318e-05 0)
(0.00204151 4.72989e-05 0)
(0.00204446 5.39333e-05 0)
(0.0020478 6.14463e-05 0)
(0.00205156 6.9965e-05 0)
(0.00205582 7.9635e-05 0)
(0.00206059 9.06229e-05 0)
(0.00206597 0.000103121 0)
(0.00207196 0.000117349 0)
(0.00207873 0.000133563 0)
(0.00208617 0.000152054 0)
(0.00209461 0.00017317 0)
(0.00210369 0.000197292 0)
(0.00211413 0.000224903 0)
(0.00212494 0.000256496 0)
(0.00213771 0.000292771 0)
(0.00215003 0.000334311 0)
(0.0021654 0.000382232 0)
(0.00217836 0.00043702 0)
(0.00219652 0.000500781 0)
(0.0022078 0.000572998 0)
(0.00222904 0.000658845 0)
(0.00223289 0.000752728 0)
(0.00225958 0.000871574 0)
(0.00224041 0.000985845 0)
(0.00228888 0.00116486 0)
(0.00233262 0.00127872 0)
(0.00210827 0.00136859 0)
(0.00207447 0.00157951 0)
(0.00199888 0.00181296 0)
(0.00187668 0.00206206 0)
(0.00169968 0.00231655 0)
(0.00144688 0.00257998 0)
(0.00113332 0.0028221 0)
(0.000759707 0.00301691 0)
(0.000338249 0.00314175 0)
(0.00202633 8.04282e-07 0)
(0.00202646 2.42561e-06 0)
(0.00202673 4.08542e-06 0)
(0.00202713 5.81009e-06 0)
(0.00202767 7.62705e-06 0)
(0.00202837 9.56526e-06 0)
(0.00202923 1.16557e-05 0)
(0.00203027 1.39319e-05 0)
(0.0020315 1.64304e-05 0)
(0.00203294 1.91917e-05 0)
(0.00203461 2.22605e-05 0)
(0.00203653 2.56869e-05 0)
(0.00203875 2.95272e-05 0)
(0.00204128 3.38447e-05 0)
(0.00204417 3.87114e-05 0)
(0.00204746 4.42087e-05 0)
(0.0020512 5.04298e-05 0)
(0.00205544 5.74809e-05 0)
(0.00206024 6.54836e-05 0)
(0.00206568 7.45784e-05 0)
(0.00207181 8.4925e-05 0)
(0.00207875 9.67117e-05 0)
(0.00208653 0.00011015 0)
(0.00209536 0.000125495 0)
(0.00210517 0.000143027 0)
(0.00211635 0.000163105 0)
(0.00212859 0.00018609 0)
(0.00214272 0.000212505 0)
(0.00215773 0.000242803 0)
(0.00217554 0.000277786 0)
(0.00219344 0.000317965 0)
(0.00221582 0.000364657 0)
(0.00223612 0.000418283 0)
(0.00226423 0.000481192 0)
(0.00228506 0.000553146 0)
(0.00232027 0.000638958 0)
(0.00233702 0.000735405 0)
(0.00238018 0.000854899 0)
(0.00238419 0.00098048 0)
(0.00242985 0.0011555 0)
(0.00254778 0.00127673 0)
(0.00231273 0.00143948 0)
(0.00230245 0.00167655 0)
(0.00225029 0.0019464 0)
(0.00214796 0.00224265 0)
(0.0019966 0.00253107 0)
(0.0017072 0.00287753 0)
(0.00135927 0.00319688 0)
(0.000923618 0.00345549 0)
(0.000412859 0.00361944 0)
(0.00202785 7.33794e-07 0)
(0.002028 2.21305e-06 0)
(0.00202832 3.72751e-06 0)
(0.00202879 5.3013e-06 0)
(0.00202944 6.95952e-06 0)
(0.00203027 8.72869e-06 0)
(0.00203129 1.06372e-05 0)
(0.00203251 1.27158e-05 0)
(0.00203397 1.4998e-05 0)
(0.00203568 1.7521e-05 0)
(0.00203766 2.0326e-05 0)
(0.00203995 2.34591e-05 0)
(0.00204259 2.69722e-05 0)
(0.00204561 3.09238e-05 0)
(0.00204905 3.53805e-05 0)
(0.00205298 4.0418e-05 0)
(0.00205745 4.61226e-05 0)
(0.00206254 5.25937e-05 0)
(0.00206831 5.99447e-05 0)
(0.00207485 6.83076e-05 0)
(0.00208226 7.78323e-05 0)
(0.00209067 8.86981e-05 0)
(0.00210015 0.000101102 0)
(0.00211092 0.000115296 0)
(0.00212299 0.000131536 0)
(0.00213677 0.000150188 0)
(0.00215206 0.00017157 0)
(0.00216967 0.000196256 0)
(0.00218886 0.000224585 0)
(0.00221131 0.000257553 0)
(0.00223509 0.000295333 0)
(0.00226363 0.000339879 0)
(0.00229246 0.000390572 0)
(0.00232857 0.000451716 0)
(0.00236228 0.000519988 0)
(0.0024075 0.000605743 0)
(0.00244433 0.000697476 0)
(0.00249955 0.000821296 0)
(0.00253474 0.000942963 0)
(0.00259612 0.0011277 0)
(0.00275055 0.00124773 0)
(0.00253909 0.0014675 0)
(0.00256324 0.0017304 0)
(0.00254487 0.00204293 0)
(0.00246423 0.00241872 0)
(0.00235551 0.00289579 0)
(0.00207436 0.00333399 0)
(0.00165973 0.00375586 0)
(0.00110268 0.00411042 0)
(0.00042549 0.00432757 0)
(0.00202922 6.52034e-07 0)
(0.00202939 1.9665e-06 0)
(0.00202975 3.31231e-06 0)
(0.00203029 4.71096e-06 0)
(0.00203103 6.18483e-06 0)
(0.00203197 7.75754e-06 0)
(0.00203314 9.45443e-06 0)
(0.00203454 1.13029e-05 0)
(0.0020362 1.3333e-05 0)
(0.00203815 1.55779e-05 0)
(0.00204042 1.80745e-05 0)
(0.00204304 2.08641e-05 0)
(0.00204606 2.39933e-05 0)
(0.00204951 2.75147e-05 0)
(0.00205347 3.14882e-05 0)
(0.00205798 3.59821e-05 0)
(0.00206312 4.10745e-05 0)
(0.00206897 4.68554e-05 0)
(0.00207563 5.34277e-05 0)
(0.00208319 6.0912e-05 0)
(0.00209177 6.94448e-05 0)
(0.00210153 7.91917e-05 0)
(0.00211257 9.03332e-05 0)
(0.00212515 0.000103104 0)
(0.00213933 0.000117739 0)
(0.00215555 0.000134589 0)
(0.0021737 0.000153944 0)
(0.00219463 0.000176361 0)
(0.00221775 0.000202157 0)
(0.00224481 0.000232294 0)
(0.00227405 0.000266984 0)
(0.00230908 0.000308039 0)
(0.00234563 0.000355159 0)
(0.00239095 0.000412034 0)
(0.00243588 0.000476717 0)
(0.00249407 0.000557209 0)
(0.00254808 0.000646844 0)
(0.00262056 0.000763876 0)
(0.00268421 0.000888903 0)
(0.00276661 0.00106438 0)
(0.00295538 0.00118332 0)
(0.00278585 0.00144693 0)
(0.00285662 0.00172934 0)
(0.00289277 0.0020729 0)
(0.0028761 0.00248352 0)
(0.0028495 0.00308062 0)
(0.00260258 0.00365669 0)
(0.00216212 0.00425655 0)
(0.0014924 0.00479448 0)
(0.000608334 0.00514108 0)
(0.00203041 5.60218e-07 0)
(0.00203061 1.6896e-06 0)
(0.002031 2.84597e-06 0)
(0.00203161 4.04784e-06 0)
(0.00203242 5.31446e-06 0)
(0.00203347 6.66621e-06 0)
(0.00203476 8.12493e-06 0)
(0.00203631 9.71425e-06 0)
(0.00203816 1.14601e-05 0)
(0.00204032 1.33912e-05 0)
(0.00204284 1.55393e-05 0)
(0.00204575 1.79403e-05 0)
(0.0020491 2.06345e-05 0)
(0.00205294 2.36677e-05 0)
(0.00205734 2.70917e-05 0)
(0.00206237 3.09662e-05 0)
(0.0020681 3.53591e-05 0)
(0.00207463 4.03493e-05 0)
(0.00208207 4.60265e-05 0)
(0.00209054 5.24972e-05 0)
(0.00210016 5.98808e-05 0)
(0.00211112 6.83247e-05 0)
(0.00212356 7.79871e-05 0)
(0.00213775 8.90802e-05 0)
(0.00215382 0.000101808 0)
(0.00217222 0.000116496 0)
(0.00219296 0.000133388 0)
(0.00221688 0.000153025 0)
(0.00224363 0.000175637 0)
(0.00227479 0.000202215 0)
(0.00230925 0.000232785 0)
(0.00234997 0.000269342 0)
(0.00239429 0.000311139 0)
(0.0024476 0.000362469 0)
(0.00250443 0.000420374 0)
(0.00257408 0.000494304 0)
(0.0026467 0.000575868 0)
(0.00273656 0.000685415 0)
(0.00282899 0.000803248 0)
(0.00294051 0.00096968 0)
(0.00315337 0.00107787 0)
(0.00304532 0.00137195 0)
(0.00317513 0.00166522 0)
(0.00328526 0.00203475 0)
(0.00335834 0.00249902 0)
(0.00344769 0.00318888 0)
(0.00329671 0.00394225 0)
(0.0028802 0.00479976 0)
(0.00208454 0.00565337 0)
(0.000886199 0.00625811 0)
(0.00203142 4.59767e-07 0)
(0.00203163 1.38666e-06 0)
(0.00203206 2.33573e-06 0)
(0.00203271 3.32221e-06 0)
(0.00203359 4.36192e-06 0)
(0.00203473 5.47165e-06 0)
(0.00203612 6.66934e-06 0)
(0.0020378 7.97448e-06 0)
(0.0020398 9.40842e-06 0)
(0.00204215 1.09948e-05 0)
(0.00204487 1.27599e-05 0)
(0.00204803 1.47333e-05 0)
(0.00205167 1.69484e-05 0)
(0.00205584 1.9443e-05 0)
(0.00206061 2.22601e-05 0)
(0.00206608 2.54492e-05 0)
(0.00207231 2.90668e-05 0)
(0.00207942 3.31784e-05 0)
(0.00208752 3.78591e-05 0)
(0.00209676 4.31978e-05 0)
(0.00210727 4.92945e-05 0)
(0.00211926 5.62735e-05 0)
(0.0021329 6.42674e-05 0)
(0.00214848 7.34571e-05 0)
(0.00216618 8.40146e-05 0)
(0.00218647 9.62189e-05 0)
(0.00220947 0.000110279 0)
(0.002236 0.000126659 0)
(0.00226592 0.000145569 0)
(0.00230077 0.00016785 0)
(0.00233978 0.000193591 0)
(0.0023858 0.000224421 0)
(0.00243682 0.000259974 0)
(0.00249791 0.000303566 0)
(0.00256497 0.000353579 0)
(0.00264632 0.000416878 0)
(0.00273521 0.000488926 0)
(0.0028432 0.000583749 0)
(0.00296255 0.000691073 0)