/*--------------------------------*- C++ -*----------------------------------*\
| =========                 |                                                 |
| \\      /  F ield         | foam-extend: Open Source CFD                    |
|  \\    /   O peration     | Version:     4.0                                |
|   \\  /    A nd           | Web:         http://www.foam-extend.org         |
|    \\/     M anipulation  |                                                 |
\*---------------------------------------------------------------------------*/
FoamFile
{
    version     2.0;
    format      ascii;
    class       volScalarField;
    location    "0.002";
    object      k;
}
// * * * * * * * * * * * * * * * * * * * * * * * * * * * * * * * * * * * * * //

dimensions      [0 2 -2 0 0 0 0];

internalField   nonuniform List<scalar> 
28770
(
5.02589e-08
1.13935e-07
1.7049e-07
2.22129e-07
2.6908e-07
3.12451e-07
3.52289e-07
3.88747e-07
4.21865e-07
4.51659e-07
4.78132e-07
5.0128e-07
5.21096e-07
5.37579e-07
5.50735e-07
5.60572e-07
5.67112e-07
5.70384e-07
5.7043e-07
5.67307e-07
5.61081e-07
5.51843e-07
5.39704e-07
5.24791e-07
5.07258e-07
4.8728e-07
4.65056e-07
4.40815e-07
4.14806e-07
3.87306e-07
3.58613e-07
3.29046e-07
2.98944e-07
2.68656e-07
2.38544e-07
2.0897e-07
1.80296e-07
1.52876e-07
1.27046e-07
1.03118e-07
8.1373e-08
6.2048e-08
4.53273e-08
3.133e-08
2.01003e-08
1.15959e-08
5.67776e-09
2.09165e-09
4.29657e-10
2.90205e-11
1.42301e-06
3.40015e-06
5.08043e-06
6.61442e-06
8.011e-06
9.3003e-06
1.0485e-05
1.15692e-05
1.2554e-05
1.344e-05
1.42273e-05
1.49155e-05
1.55047e-05
1.59948e-05
1.63858e-05
1.66782e-05
1.68724e-05
1.69694e-05
1.69704e-05
1.68772e-05
1.66916e-05
1.64165e-05
1.6055e-05
1.5611e-05
1.5089e-05
1.44944e-05
1.38329e-05
1.31114e-05
1.23373e-05
1.15189e-05
1.0665e-05
9.7852e-06
8.88943e-06
7.98819e-06
7.09218e-06
6.21223e-06
5.35911e-06
4.54331e-06
3.77486e-06
3.06306e-06
2.41624e-06
1.84148e-06
1.34424e-06
9.281e-07
5.94353e-07
3.41755e-07
1.66178e-07
6.00885e-08
1.14404e-08
4.46511e-10
9.37548e-06
2.3529e-05
3.5194e-05
4.57406e-05
5.53551e-05
6.42229e-05
7.23755e-05
7.9837e-05
8.66154e-05
9.27135e-05
9.8131e-05
0.000102867
0.00010692
0.00011029
0.000112977
0.000114984
0.000116315
0.000116976
0.000116975
0.000116325
0.000115038
0.000113133
0.000110634
0.000107565
0.00010396
9.98529e-05
9.52859e-05
9.03051e-05
8.49622e-05
7.93138e-05
7.34213e-05
6.73503e-05
6.117e-05
5.49525e-05
4.87717e-05
4.27025e-05
3.6819e-05
3.11937e-05
2.58958e-05
2.09896e-05
1.65327e-05
1.25738e-05
9.15108e-06
6.28912e-06
3.99724e-06
2.26739e-06
1.07262e-06
3.64741e-07
6.1234e-08
2.17604e-09
3.11269e-05
8.21943e-05
0.000124102
0.000161354
0.000195152
0.000226243
0.000254815
0.000280962
0.000304715
0.000326082
0.000345061
0.000361648
0.000375838
0.000387629
0.000397023
0.000404028
0.000408659
0.000410935
0.000410889
0.000408558
0.000403992
0.000397257
0.000388431
0.000377608
0.000364898
0.000350425
0.000334337
0.000316796
0.000297983
0.000278098
0.000257356
0.00023599
0.000214241
0.000192365
0.000170622
0.000149274
0.000128583
0.000108805
9.0184e-05
7.29458e-05
5.72947e-05
4.34039e-05
3.14092e-05
2.1401e-05
1.34175e-05
7.44014e-06
3.38692e-06
1.08394e-06
1.70252e-07
5.89862e-09
7.35281e-05
0.000201699
0.000308697
0.000402769
0.000487431
0.000564893
0.000635921
0.000700852
0.000759807
0.000812821
0.000859896
0.00090102
0.000936182
0.000965376
0.000988608
0.0010059
0.00101727
0.00102279
0.00102253
0.00101659
0.00100508
0.000988169
0.000966057
0.000938973
0.000907188
0.000871019
0.000830826
0.000787017
0.000740044
0.000690403
0.000638635
0.000585314
0.00053105
0.000476477
0.000422244
0.00036901
0.000317427
0.000268137
0.000221748
0.000178832
0.000139902
0.000105402
7.56822e-05
5.09889e-05
3.14424e-05
1.70167e-05
7.48825e-06
2.30192e-06
3.50526e-07
1.20225e-08
0.000142791
0.00040178
0.000623302
0.000817737
0.000991569
0.00114959
0.00129392
0.00142555
0.00154492
0.00165216
0.00174732
0.00183039
0.00190137
0.00196024
0.00200701
0.00204173
0.00206446
0.0020753
0.00207442
0.00206199
0.00203829
0.00200362
0.00195839
0.00190307
0.00183821
0.00176444
0.00168251
0.00159324
0.00149755
0.00139644
0.00129103
0.00118248
0.00107202
0.000960964
0.000850625
0.000742348
0.00063747
0.0005373
0.000443092
0.000356022
0.00027716
0.000207441
0.000147624
9.8253e-05
5.96017e-05
3.15791e-05
1.35509e-05
4.06456e-06
6.09274e-07
2.07923e-08
0.000244215
0.000698699
0.00109671
0.00144779
0.00176074
0.00204363
0.00230082
0.00253462
0.00274615
0.00293592
0.00310412
0.0032508
0.00337599
0.00347968
0.00356191
0.00362276
0.00366234
0.00368085
0.00367854
0.00365578
0.00361299
0.00355076
0.00346979
0.0033709
0.00325508
0.00312347
0.00297736
0.00281822
0.00264769
0.00246757
0.00227981
0.0020865
0.00188986
0.0016922
0.00149587
0.0013033
0.00111688
0.000938956
0.000771795
0.000617535
0.000478137
0.000355337
0.000250562
0.00016482
9.85399e-05
5.13381e-05
2.16444e-05
6.39442e-06
9.49929e-07
3.23234e-08
0.00038186
0.00110468
0.00175057
0.00232509
0.00283747
0.00329894
0.00371669
0.00409507
0.00443644
0.00474204
0.00501244
0.00524792
0.0054486
0.00561454
0.00574584
0.00584264
0.00590515
0.00593367
0.00592863
0.0058906
0.00582029
0.00571862
0.00558671
0.00542591
0.00523778
0.00502417
0.00478716
0.00452914
0.00425275
0.0039609
0.00365677
0.00334374
0.00302541
0.00270554
0.00238799
0.00207669
0.00177557
0.00148848
0.00121916
0.000971146
0.000747714
0.00055177
0.000385691
0.000251053
0.000148286
7.62714e-05
3.1766e-05
9.29316e-06
1.37256e-06
4.66088e-08
0.000558342
0.00162752
0.00259878
0.00347087
0.00425099
0.0049525
0.00558549
0.00615682
0.0066707
0.00712955
0.00753469
0.00788685
0.00818641
0.00843362
0.00862871
0.00877192
0.00886363
0.0089043
0.00889458
0.00883532
0.00872758
0.00857277
0.00837254
0.0081289
0.00784421
0.00752124
0.00716313
0.00677346
0.00635621
0.00591579
0.00545698
0.00498493
0.00450508
0.00402315
0.00354501
0.00307667
0.00262413
0.00219331
0.00178994
0.00141946
0.00108691
0.000796745
0.000552541
0.000356431
0.000208458
0.000106187
4.38493e-05
1.27449e-05
1.87485e-06
6.35531e-08
0.000774731
0.00227035
0.00364705
0.00489458
0.00601557
0.00702382
0.00793175
0.00874888
0.00948166
0.0101342
0.0107089
0.0112074
0.0116306
0.0119789
0.012253
0.0124532
0.0125802
0.0126347
0.0126176
0.0125302
0.0123739
0.0121508
0.0118632
0.0115139
0.0111063
0.0106442
0.0101323
0.00957559
0.00897973
0.00835105
0.00769639
0.00702314
0.00633913
0.00565259
0.00497202
0.00430612
0.00366357
0.00305299
0.00248266
0.00196044
0.0014935
0.00108815
0.000749376
0.00047979
0.000278385
0.000140754
5.77674e-05
1.67168e-05
2.45277e-06
8.305e-08
0.00103041
0.0030312
0.00489236
0.00659313
0.00812924
0.00951298
0.010758
0.0118761
0.0128762
0.0137644
0.0145447
0.0152199
0.0157916
0.016261
0.016629
0.0168965
0.0170645
0.0171339
0.0171061
0.0169827
0.0167659
0.0164583
0.0160632
0.0155843
0.0150262
0.0143943
0.0136946
0.0129342
0.0121207
0.0112628
0.01037
0.00945225
0.00852049
0.00758604
0.00666068
0.00575645
0.00488542
0.00405953
0.0032902
0.00258807
0.00196269
0.00142228
0.000973405
0.000619417
0.000357197
0.000179589
7.33692e-05
2.11637e-05
3.09908e-06
1.04864e-07
0.00132314
0.00390308
0.00632322
0.00855137
0.0105744
0.0124009
0.0140446
0.0155188
0.0168346
0.0180003
0.0190219
0.0199036
0.0206482
0.0212578
0.0217341
0.0220784
0.0222921
0.0223767
0.0223341
0.0221666
0.0218768
0.0214683
0.0209452
0.0203126
0.0195766
0.0187439
0.0178227
0.0168222
0.0157525
0.014625
0.0134523
0.0122477
0.0110257
0.00980131
0.00859032
0.00740881
0.00627295
0.00519861
0.00420088
0.00329347
0.00248814
0.00179456
0.00122103
0.000772993
0.000443869
0.000222421
9.0627e-05
2.60884e-05
3.81188e-06
1.28605e-07
0.00164908
0.00487419
0.00792002
0.0107425
0.0133179
0.0156498
0.01775
0.0196323
0.0213098
0.0227929
0.0240897
0.025206
0.0261463
0.0269138
0.0275111
0.0279403
0.0282036
0.0283031
0.0282412
0.0280209
0.0276458
0.0271202
0.0264495
0.0256401
0.0246996
0.0236369
0.0224621
0.021187
0.0198247
0.0183898
0.0168982
0.0153674
0.0138157
0.0122628
0.010729
0.00923514
0.00780211
0.00645042
0.00519931
0.00406574
0.00306307
0.00220071
0.00148843
0.000937537
0.000536969
0.000269014
0.000109697
3.16164e-05
4.62426e-06
1.56234e-07
0.00200287
0.00592798
0.00965522
0.0131283
0.0163121
0.0192035
0.0218109
0.0241478
0.0262282
0.0280643
0.0296663
0.0310422
0.0321982
0.0331388
0.033868
0.0343889
0.0347045
0.0348177
0.0347317
0.0344504
0.0339782
0.0333205
0.0324842
0.0314769
0.0303082
0.028989
0.027532
0.0259517
0.0242646
0.0224887
0.0206442
0.0187527
0.0168374
0.0149229
0.0130348
0.0111991
0.00944234
0.00779021
0.00626678
0.00489262
0.00368155
0.00263783
0.00177327
0.00111121
0.000635758
0.000319462
0.000130796
3.78224e-05
5.52755e-06
1.8561e-07
0.00237783
0.00704395
0.0114946
0.0156611
0.0194969
0.0229908
0.0261463
0.0289755
0.0314925
0.0337111
0.0356434
0.0372993
0.0386871
0.039813
0.0406824
0.0412997
0.041669
0.0417942
0.0416795
0.0413295
0.0407499
0.0399473
0.0389297
0.0377068
0.0362899
0.0346922
0.0329292
0.0310186
0.0289803
0.0268365
0.0246116
0.0223321
0.0200264
0.0177247
0.0154579
0.0132583
0.0111582
0.00918924
0.00738167
0.00576122
0.00434127
0.00310027
0.00207108
0.00129485
0.00074448
0.000378083
0.000156562
4.581e-05
6.72887e-06
2.1522e-07
0.00276621
0.00819817
0.0133981
0.0182855
0.0228019
0.026927
0.0306592
0.0340074
0.0369854
0.0396078
0.0418883
0.043839
0.0454698
0.0467892
0.0478042
0.0485205
0.0489437
0.0490787
0.0489309
0.048506
0.0478106
0.0468529
0.0456423
0.0441903
0.0425103
0.040618
0.0385319
0.0362728
0.0338647
0.0313338
0.0287096
0.0260235
0.0233097
0.0206038
0.017943
0.0153656
0.0129099
0.0106146
0.00851756
0.00665671
0.00562685
0.00378791
0.00253973
0.00161175
0.000959127
0.000512446
0.0002293
7.61773e-05
1.45427e-05
6.2851e-07
0.0031593
0.00936404
0.0153214
0.0209395
0.0261478
0.0309172
0.0352401
0.0391213
0.0425732
0.0456108
0.0482491
0.050502
0.0523816
0.0538982
0.0550606
0.0558764
0.0563523
0.0564947
0.0563101
0.0558055
0.0549887
0.0538694
0.0524585
0.0507694
0.0488177
0.0466218
0.0442031
0.0415859
0.0387983
0.035871
0.0328383
0.0297373
0.0266076
0.0234909
0.0204306
0.0174706
0.0146552
0.012029
0.0096363
0.00751359
0.0062738
0.00423232
0.00279781
0.0017747
0.00106857
0.000579183
0.000260982
8.72506e-05
1.656e-05
6.54024e-07
0.00354781
0.0105133
0.0172172
0.0235572
0.0294507
0.0348607
0.0397721
0.0441856
0.0481115
0.0515647
0.054561
0.0571159
0.0592434
0.0609558
0.0622639
0.0631768
0.063703
0.0638502
0.0636263
0.0630395
0.062099
0.0608158
0.0592026
0.0572747
0.0550499
0.0525492
0.0497972
0.0468219
0.0436551
0.0403324
0.0368932
0.0333798
0.0298377
0.0263147
0.0228599
0.0195229
0.0163528
0.0133985
0.0107087
0.00832013
0.00688232
0.0046272
0.00304255
0.00193804
0.00117893
0.000641911
0.000288713
9.75129e-05
1.88015e-05
7.58069e-07
0.00392209
0.0116169
0.0190373
0.0260711
0.0326252
0.0386536
0.0441344
0.0490646
0.0534511
0.0573082
0.0606525
0.0635006
0.0658682
0.0677698
0.0692177
0.0702231
0.0707961
0.0709456
0.0706811
0.070012
0.068949
0.0675044
0.0656928
0.063531
0.0610394
0.0582416
0.0551651
0.0518415
0.0483068
0.044601
0.0407684
0.0368568
0.0329174
0.0290036
0.0251705
0.021473
0.0179651
0.014699
0.0117274
0.00909366
0.00749524
0.00504318
0.00332171
0.00212782
0.00130114
0.000650137
0.000281629
9.51223e-05
1.72418e-05
5.30674e-07
0.00427244
0.0126461
0.0207339
0.0284146
0.0355861
0.0421927
0.048208
0.0536235
0.0584434
0.0626806
0.0663522
0.0694759
0.072069
0.0741475
0.0757256
0.0768164
0.0774312
0.0775809
0.077276
0.0765273
0.0753468
0.0737483
0.071748
0.0693647
0.0666206
0.0635421
0.0601596
0.0565081
0.0526273
0.0485618
0.0443605
0.0400765
0.0357661
0.0314884
0.0273035
0.023272
0.0194525
0.0159012
0.0126746
0.00982497
0.00808291
0.00547624
0.00362103
0.00233032
0.00142627
0.000709476
0.000315451
0.000107852
1.98817e-05
6.63712e-07
0.0045894
0.0135735
0.0222615
0.0305246
0.0382524
0.0453815
0.0518791
0.0577332
0.0629461
0.0675281
0.0714962
0.0748694
0.0776661
0.0799039
0.0815988
0.0827652
0.0834163
0.0835641
0.0832205
0.0823976
0.0811087
0.0793689
0.0771958
0.07461
0.0716358
0.0683018
0.0646411
0.060692
0.0564977
0.0521068
0.0475725
0.0429526
0.0383085
0.033704
0.0292043
0.0248745
0.0207778
0.0169744
0.0135239
0.010484
0.00860511
0.0058809
0.00389899
0.00251443
0.00154077
0.000766988
0.000343236
0.000116757
2.2108e-05
7.57963e-07
0.00486412
0.0143739
0.0235787
0.0323432
0.0405504
0.0481305
0.055044
0.0612774
0.0668295
0.0717097
0.0759342
0.0795225
0.0824946
0.0848692
0.0866638
0.0878942
0.0885749
0.0887192
0.0883402
0.0874512
0.0860665
0.0842026
0.0818783
0.0791158
0.0759412
0.072385
0.068483
0.0642759
0.0598103
0.0551382
0.0503167
0.0454076
0.0404766
0.0355919
0.0308229
0.0262387
0.0219063
0.0178893
0.01425
0.0110479
0.00904145
0.00622488
0.00413079
0.00266722
0.00163786
0.000818456
0.000369634
0.000128196
2.49793e-05
8.20626e-07
0.00508868
0.0150255
0.0246495
0.0338204
0.0424163
0.0503622
0.0576141
0.0641536
0.0699804
0.0751026
0.0795349
0.0832974
0.0864108
0.0888953
0.0907694
0.09205
0.092753
0.0928926
0.0924831
0.0915384
0.0900741
0.0881075
0.0856588
0.0827513
0.0794125
0.0756748
0.0715758
0.0671586
0.0624725
0.0575721
0.0525179
0.0473749
0.0422124
0.0371021
0.0321167
0.0273286
0.0228078
0.0186206
0.0148312
0.0115006
0.00938706
0.00650386
0.00431835
0.00279137
0.00171913
0.000866766
0.000394542
0.000139438
2.50707e-05
1.52832e-06
0.00525653
0.0155107
0.0254454
0.0349167
0.0437994
0.052015
0.0595162
0.0662816
0.072309
0.077608
0.0821931
0.0860829
0.0892991
0.0918628
0.0937936
0.0951094
0.0958267
0.0959608
0.0955265
0.0945388
0.0930138
0.0909697
0.0884274
0.0854113
0.08195
0.0780772
0.073832
0.0692593
0.0644101
0.0593415
0.054116
0.0488014
0.0434693
0.0381942
0.0330513
0.0281152
0.0234581
0.0191483
0.0152515
0.0118304
0.00963519
0.00671998
0.00446646
0.00288958
0.00178474
0.000905599
0.000418845
0.000151994
2.89729e-05
1.90307e-06
0.005364
0.0158209
0.0259544
0.0356168
0.0446812
0.0530668
0.0607247
0.0676315
0.0737835
0.0791913
0.0838705
0.0878388
0.0911176
0.0937289
0.095693
0.0970285
0.0977524
0.0978806
0.0974285
0.0964115
0.0948461
0.0927513
0.0901484
0.0870625
0.0835229
0.079564
0.0752261
0.0705551
0.0656032
0.0604288
0.0550962
0.0496744
0.044237
0.0388597
0.0336196
0.0285927
0.0238525
0.0194683
0.0155072
0.0120334
0.00977796
0.00686797
0.00457133
0.00295896
0.00182987
0.000931445
0.000437941
0.000166022
4.6704e-05
4.55125e-06
0.0054057
0.0159412
0.0261511
0.0358855
0.0450168
0.0534637
0.0611768
0.0681325
0.0743265
0.0797692
0.084478
0.0884708
0.0917681
0.0943924
0.0963642
0.0977027
0.098425
0.0985473
0.0980852
0.0970543
0.0954714
0.0933556
0.0907284
0.0876153
0.0840459
0.0800549
0.0756829
0.0709763
0.0659877
0.0607761
0.0554062
0.0499478
0.0444746
0.0390634
0.0337913
0.0287352
0.0239688
0.0195619
0.0155815
0.0120927
0.00979826
0.00693272
0.00461868
0.00298974
0.00184979
0.000944266
0.000446573
0.000174041
5.31494e-05
8.43311e-06
0.00538173
0.0158711
0.0260339
0.0357195
0.0448012
0.0531988
0.0608641
0.0677741
0.0739255
0.0793297
0.0840034
0.087965
0.0912358
0.0938378
0.0957918
0.0971164
0.0978291
0.0979457
0.0974818
0.0964529
0.0948758
0.0927694
0.0901552
0.0870584
0.0835086
0.0795403
0.0751937
0.0705151
0.0655568
0.0603774
0.055041
0.0496169
0.0441786
0.0388019
0.0335638
0.0285403
0.0238048
0.0194266
0.0154724
0.0120064
0.00969461
0.00690181
0.00459699
0.00297485
0.00183925
0.000934829
0.000439697
0.000168454
4.77134e-05
5.17573e-06
0.00529212
0.0156108
0.0256024
0.0351178
0.0440333
0.0522712
0.0597857
0.0665561
0.0725814
0.0778729
0.082447
0.086323
0.0895228
0.0920679
0.0939784
0.0952727
0.0959678
0.096079
0.0956215
0.0946105
0.0930624
0.0909956
0.0884313
0.0853941
0.081913
0.0780219
0.0737601
0.0691729
0.0643115
0.0592332
0.0540008
0.0486821
0.0433488
0.0380753
0.0329368
0.0280078
0.0233604
0.0190625
0.0151797
0.0117751
0.00947504
0.00677887
0.00451033
0.00291646
0.00179992
0.000907186
0.000420719
0.000154715
3.8726e-05
1.99534e-06
0.0051418
0.0151738
0.0248797
0.0341131
0.0427548
0.0507313
0.0580006
0.0645457
0.0703681
0.0754789
0.0798947
0.0836361
0.0867246
0.0891813
0.0910254
0.0922745
0.0929448
0.093051
0.0926076
0.0916291
0.0901312
0.0881319
0.0856513
0.0827134
0.079346
0.075582
0.0714592
0.0670214
0.062318
0.0574041
0.0523403
0.0471919
0.0420282
0.0369208
0.0319425
0.0271653
0.0226591
0.0184899
0.0147216
0.0114168
0.00915737
0.00658198
0.00437485
0.00282549
0.00173867
0.000867605
0.000397032
0.000141401
3.33779e-05
1.55305e-06
0.00493154
0.0145623
0.0238704
0.0327129
0.040977
0.0485943
0.0555281
0.0617668
0.0673126
0.0721778
0.0763802
0.0799407
0.0828803
0.0852189
0.0869749
0.0881648
0.0888037
0.0889054
0.0884834
0.0875514
0.0861242
0.0842187
0.0818543
0.0790535
0.0758429
0.0722537
0.0683219
0.0640891
0.0596021
0.0549133
0.0500802
0.0451649
0.0402329
0.0353526
0.0305932
0.0260235
0.0217103
0.017717
0.0141056
0.0109381
0.00874565
0.00632182
0.00420004
0.00270905
0.00166118
0.000820254
0.000371511
0.000129722
2.55476e-05
8.666e-07
0.004669
0.0137958
0.0226052
0.0309593
0.0387528
0.0459244
0.052444
0.0583033
0.0635081
0.0680716
0.0720128
0.0753522
0.07811
0.080305
0.0819541
0.0830726
0.0836744
0.0837719
0.0833777
0.0825043
0.0811654
0.0793769
0.0771566
0.074526
0.0715097
0.068137
0.0644417
0.0604625
0.0562433
0.0518331
0.0472854
0.0426584
0.0380134
0.0334143
0.0289262
0.0246138
0.0205403
0.0167659
0.0133497
0.0103522
0.00825269
0.00600086
0.00398558
0.00256728
0.00156965
0.000768007
0.000344814
0.000117919
2.17997e-05
7.25218e-07
0.00436146
0.0128949
0.0211182
0.0288998
0.0361435
0.0427959
0.0488344
0.0542547
0.0590647
0.0632804
0.066921
0.0700064
0.0725556
0.0745859
0.0761128
0.07715
0.0777098
0.0778035
0.0774422
0.0766373
0.0754013
0.0737487
0.071696
0.0692628
0.066472
0.0633506
0.0599296
0.0562447
0.0523363
0.0482493
0.0440331
0.0397411
0.0354298
0.0311581
0.0269861
0.0229739
0.0191804
0.0156621
0.0124739
0.00967319
0.00767607
0.00561663
0.00372624
0.00239626
0.00146229
0.000711796
0.000317354
0.000109177
1.97359e-05
6.27907e-07
0.00401767
0.0118842
0.0194499
0.0265909
0.0332212
0.039297
0.0448015
0.0497358
0.0541108
0.0579438
0.0612541
0.0640607
0.0663811
0.068231
0.069624
0.0705722
0.0710863
0.0711762
0.0708516
0.0701226
0.0690004
0.0674981
0.0656307
0.0634159
0.0608745
0.0580309
0.0549133
0.0515541
0.0479898
0.044261
0.0404124
0.0364921
0.0325515
0.0286438
0.024824
0.0211468
0.0176665
0.0144351
0.0115032
0.00892229
0.00706087
0.00518416
0.00342754
0.00219732
0.00134068
0.000652254
0.000283777
9.66901e-05
1.76431e-05
5.28248e-07
0.00364703
0.0107909
0.0176454
0.0240955
0.0300664
0.035524
0.0404585
0.0448751
0.0487879
0.0522153
0.0551759
0.0576876
0.059766
0.0614251
0.0626765
0.0635304
0.0639962
0.064082
0.0637963
0.0631479
0.0621467
0.0608042
0.0591338
0.0571512
0.0548752
0.0523274
0.0495331
0.046521
0.0433236
0.039977
0.036521
0.0329984
0.0294546
0.0259374
0.0224958
0.0191792
0.0160368
0.0131165
0.0104651
0.00813072
0.00643032
0.00474183
0.0031256
0.00199255
0.00121301
0.000659167
0.000294673
0.000100656
1.98555e-05
8.12804e-07
0.0032593
0.00964391
0.0157524
0.0214801
0.0267645
0.0315802
0.0359248
0.0398076
0.0432454
0.0462563
0.0488584
0.0510677
0.0528981
0.0543613
0.0554672
0.0562243
0.05664
0.0567213
0.0564753
0.0559095
0.0550323
0.053854
0.0523861
0.0506427
0.0486399
0.046397
0.043936
0.041282
0.0384636
0.0355122
0.0324625
0.0293517
0.0262199
0.0231085
0.0200608
0.0171203
0.0143312
0.0117373
0.00938333
0.0073188
0.00581617
0.00433134
0.00285629
0.00181253
0.00109582
0.000595857
0.000269002
9.01441e-05
1.71429e-05
6.81516e-07
0.00286428
0.00847251
0.0138199
0.018813
0.0234021
0.0275706
0.0313223
0.0346708
0.0376339
0.0402296
0.0424744
0.0443825
0.0459656
0.0472333
0.0481936
0.0488534
0.0492185
0.0492946
0.0490875
0.0486035
0.0478499
0.0468352
0.0455696
0.0440651
0.0423357
0.0403979
0.0382707
0.0359759
0.0335377
0.0309832
0.028342
0.0256461
0.0229296
0.0202283
0.0175792
0.0150201
0.0125896
0.0103266
0.00827318
0.00648033
0.00511983
0.00391803
0.00261002
0.00165263
0.000990146
0.000533328
0.000239635
7.97545e-05
1.50277e-05
6.03773e-07
0.00247151
0.00730571
0.0118962
0.0161618
0.0200648
0.023598
0.0267703
0.0295983
0.0321002
0.0342929
0.0361911
0.0378068
0.0391495
0.0402269
0.0410451
0.0416094
0.0419243
0.0419944
0.0418242
0.041419
0.0407848
0.0399288
0.0388596
0.0375874
0.0361241
0.0344836
0.032682
0.0307376
0.0286708
0.0265043
0.0242631
0.0219739
0.0196653
0.0173673
0.0151111
0.0129285
0.0108521
0.00891459
0.00715101
0.005603
0.00423427
0.00301533
0.00201392
0.00125894
0.000727075
0.000370228
0.000152933
4.49412e-05
6.55861e-06
2.08974e-07
0.00209
0.00617105
0.0100271
0.0135903
0.0168342
0.01976
0.0223811
0.0247156
0.0267811
0.028593
0.0301635
0.0315025
0.0326173
0.0335137
0.0341964
0.0346691
0.0349353
0.0349984
0.0348621
0.0345306
0.0340088
0.0333026
0.0324193
0.0313671
0.0301561
0.0287978
0.0273054
0.025694
0.0239806
0.0221838
0.020324
0.0184232
0.0165047
0.0145933
0.0127144
0.0108941
0.00915886
0.00753391
0.00604422
0.00472404
0.00356789
0.0025543
0.0017204
0.00108199
0.00062143
0.000312486
0.000128134
3.70042e-05
5.40244e-06
1.81853e-07
0.00172794
0.00509362
0.00825461
0.0111563
0.0137836
0.0161444
0.0182552
0.0201343
0.0217978
0.0232588
0.0245274
0.0256109
0.0265148
0.0272434
0.0277997
0.0281865
0.0284064
0.0284618
0.0283556
0.0280911
0.0276722
0.0271038
0.0263917
0.0255427
0.0245648
0.0234674
0.0222613
0.0209585
0.0195727
0.0181189
0.0166135
0.015074
0.0135191
0.0119685
0.0104426
0.00896238
0.00754909
0.00622264
0.00499941
0.00390332
0.00294254
0.0021152
0.00143372
0.000904498
0.000519043
0.000260158
0.000106123
3.0544e-05
4.4572e-06
1.5028e-07
0.00139243
0.00409523
0.00661499
0.00891032
0.0109765
0.0128263
0.0144778
0.0159481
0.0172512
0.0183976
0.0193949
0.0202484
0.020962
0.0215384
0.0219798
0.022288
0.0224647
0.0225119
0.0224315
0.0222263
0.0218993
0.0214543
0.0208959
0.0202295
0.0194614
0.018599
0.0176509
0.0166265
0.0155365
0.0143927
0.0132077
0.0119954
0.0107702
0.00954745
0.00834283
0.00717255
0.00605326
0.0050011
0.00402819
0.00314974
0.00237655
0.00171343
0.00116645
0.000738361
0.000424335
0.000212718
8.66773e-05
2.49221e-05
3.63572e-06
1.22585e-07
0.00108935
0.00319388
0.00513812
0.00689363
0.00846415
0.00986572
0.0111161
0.0122302
0.0132192
0.0140912
0.0148513
0.0155033
0.0160494
0.0164916
0.016831
0.0170689
0.0172066
0.0172452
0.0171865
0.0170322
0.0167848
0.0164473
0.016023
0.0155162
0.0149318
0.0142753
0.0135533
0.0127731
0.0119427
0.0110711
0.0101679
0.00924347
0.00830882
0.00737542
0.00645508
0.00555977
0.00470177
0.0038936
0.00314504
0.00246614
0.00186577
0.00134988
0.000922886
0.00058657
0.000338176
0.00016991
6.93235e-05
1.99456e-05
2.9105e-06
9.81319e-08
0.000823031
0.00240289
0.00384599
0.00513609
0.00628318
0.00730441
0.00821567
0.00902899
0.00975267
0.0103921
0.0109509
0.011431
0.0118341
0.012161
0.0124126
0.0125895
0.0126928
0.0127231
0.0126816
0.0125699
0.0123895
0.0121428
0.0118322
0.0114608
0.0110323
0.0105509
0.0100213
0.00944876
0.00883938
0.00819962
0.00753656
0.00685776
0.00617119
0.00548522
0.00480842
0.00414941
0.00351681
0.00291959
0.00236537
0.00186117
0.00141339
0.00102704
0.000705666
0.000450821
0.000261155
0.000131747
5.39179e-05
1.55434e-05
2.27001e-06
7.65409e-08
0.000596233
0.00173069
0.00275242
0.00365583
0.00445465
0.00516506
0.0057999
0.00636793
0.00687472
0.00732364
0.00771669
0.00805511
0.00833964
0.00857082
0.00874909
0.00887491
0.00894881
0.00897137
0.0089434
0.0088659
0.0087401
0.00856755
0.00835007
0.00808985
0.00778945
0.00745181
0.0070803
0.00667867
0.00625112
0.00580222
0.00533691
0.00486048
0.00437849
0.00389674
0.00342121
0.00295789
0.00251264
0.00209146
0.00169982
0.00134257
0.0010241
0.00074804
0.000517037
0.000332457
0.000193848
9.83834e-05
4.04623e-05
1.17031e-05
1.71172e-06
5.77249e-08
0.000410049
0.00118064
0.00186258
0.00245863
0.00298354
0.0034507
0.00386934
0.00424513
0.00458135
0.00487987
0.00514171
0.00536749
0.00555758
0.00571223
0.0058317
0.00591624
0.00596619
0.00598194
0.00596403
0.00591311
0.00583003
0.00571581
0.00557169
0.00539912
0.00519984
0.00497579
0.00472922
0.00446265
0.00417886
0.00388089
0.00357201
0.00325573
0.00293573
0.00261581
0.0022999
0.00199198
0.00169585
0.00141535
0.00115405
0.000915147
0.000701475
0.000515406
0.000358741
0.00023252
0.000136746
6.99928e-05
2.89987e-05
8.43119e-06
1.23615e-06
4.17004e-08
0.000263824
0.000750785
0.00117259
0.00153727
0.00185795
0.0021442
0.00240174
0.00263372
0.00284182
0.00302692
0.00318952
0.00332987
0.00344814
0.00354446
0.00361897
0.0036718
0.00370318
0.00371333
0.00370259
0.00367138
0.00362021
0.00354974
0.00346074
0.00335412
0.00323094
0.00309243
0.00293999
0.00277517
0.0025997
0.00241547
0.00222449
0.00202894
0.00183109
0.00163327
0.00143789
0.00124739
0.0010641
0.000890344
0.000728265
0.000579809
0.000446675
0.000330279
0.000231703
0.000151616
9.01489e-05
4.66841e-05
1.95542e-05
5.73202e-06
8.43741e-07
2.84804e-08
0.000155268
0.000434269
0.000669916
0.000872037
0.00105019
0.00121002
0.00135446
0.00148497
0.00160227
0.00170675
0.00179861
0.00187794
0.00194484
0.00199935
0.00204156
0.00207154
0.00208941
0.0020953
0.00208941
0.00207197
0.00204328
0.00200371
0.00195369
0.00189375
0.00182449
0.00174659
0.00166086
0.00156816
0.00146948
0.00136587
0.00125848
0.00114852
0.00103726
0.000926034
0.000816167
0.000709022
0.000605917
0.00050812
0.000416822
0.000333094
0.000257863
0.00019189
0.000135748
8.97902e-05
5.41103e-05
2.84646e-05
1.21179e-05
3.59997e-06
5.33549e-07
1.80303e-08
8.05348e-05
0.000219423
0.000333651
0.000431466
0.00051825
0.000596583
0.000667643
0.000731983
0.00078988
0.000841478
0.000886855
0.000926061
0.000959127
0.000986084
0.00100697
0.00102181
0.00103069
0.00103365
0.00103081
0.00102226
0.00100817
0.00098872
0.000964119
0.000934629
0.000900547
0.000862218
0.00082003
0.000774418
0.000725863
0.000674887
0.000622053
0.00056796
0.000513234
0.000458524
0.000404486
0.000351783
0.000301063
0.000252943
0.000208001
0.000166757
0.000129655
9.70555e-05
6.92209e-05
4.6304e-05
2.83357e-05
1.52081e-05
6.62989e-06
2.01463e-06
3.0251e-07
1.02468e-08
3.43789e-05
9.00744e-05
0.000134953
0.000173678
0.000208344
0.000239789
0.000268374
0.000294277
0.000317592
0.000338373
0.000356649
0.000372439
0.000385758
0.000396617
0.000405031
0.000411018
0.0004146
0.000415806
0.000414673
0.000411249
0.000405596
0.000397787
0.000387909
0.000376066
0.000362379
0.000346986
0.000330044
0.000311729
0.000292233
0.000271766
0.000250556
0.000228842
0.000206876
0.000184918
0.000163231
0.000142081
0.000121726
0.000102414
8.4374e-05
6.78129e-05
5.2907e-05
3.97969e-05
2.85826e-05
1.93181e-05
1.2006e-05
6.59416e-06
2.9696e-06
9.37629e-07
1.44759e-07
4.93412e-09
1.04619e-05
2.60067e-05
3.85279e-05
4.94881e-05
5.9363e-05
6.8336e-05
7.64953e-05
8.3888e-05
9.05409e-05
9.64694e-05
0.000101683
0.000106187
0.000109985
0.000113082
0.000115482
0.000117189
0.000118211
0.000118555
0.000118232
0.000117256
0.000115645
0.00011342
0.000110605
0.000107231
0.000103331
9.89455e-05
9.41192e-05
8.89021e-05
8.33491e-05
7.75204e-05
7.14804e-05
6.52976e-05
5.90436e-05
5.27925e-05
4.66195e-05
4.05995e-05
3.48062e-05
2.93098e-05
2.41756e-05
1.94619e-05
1.52185e-05
1.1485e-05
8.28916e-06
5.64519e-06
3.55233e-06
1.99303e-06
9.31295e-07
3.11813e-07
5.12504e-08
1.78117e-09
1.60783e-06
3.79503e-06
5.60235e-06
7.19741e-06
8.63537e-06
9.94138e-06
1.11284e-05
1.22037e-05
1.31711e-05
1.4033e-05
1.47908e-05
1.54454e-05
1.59975e-05
1.64474e-05
1.6796e-05
1.70438e-05
1.7192e-05
1.72416e-05
1.71942e-05
1.7052e-05
1.68173e-05
1.64934e-05
1.60837e-05
1.55928e-05
1.50255e-05
1.43876e-05
1.36858e-05
1.29271e-05
1.21197e-05
1.12723e-05
1.03943e-05
9.49565e-06
8.58671e-06
7.67831e-06
6.78133e-06
5.9067e-06
5.06508e-06
4.26669e-06
3.52096e-06
2.83637e-06
2.22013e-06
1.67794e-06
1.21378e-06
8.29644e-07
5.25358e-07
2.98303e-07
1.43025e-07
5.08158e-08
9.42086e-09
3.54832e-10
5.70738e-08
1.28227e-07
1.89222e-07
2.43038e-07
2.9153e-07
3.35564e-07
3.75581e-07
4.11825e-07
4.44432e-07
4.73481e-07
4.99019e-07
5.21076e-07
5.39673e-07
5.54828e-07
5.66565e-07
5.74902e-07
5.79882e-07
5.81538e-07
5.79922e-07
5.75107e-07
5.67176e-07
5.56233e-07
5.42402e-07
5.25828e-07
5.06682e-07
4.85157e-07
4.61473e-07
4.35876e-07
4.08638e-07
3.80051e-07
3.50434e-07
3.20123e-07
2.89468e-07
2.58833e-07
2.28586e-07
1.99096e-07
1.70721e-07
1.43807e-07
1.18671e-07
9.55983e-08
7.48324e-08
5.65651e-08
4.09296e-08
2.79921e-08
1.77439e-08
1.00968e-08
4.86877e-09
1.76085e-09
3.51307e-10
2.25137e-11
3.01729e-08
7.21878e-10
4.02552e-11
1.39654e-12
1.53603e-14
1.60271e-15
1e-15
1e-15
1e-15
1e-15
1e-15
1e-15
1e-15
1e-15
1.48472e-15
3.0737e-14
6.25463e-13
1.27499e-11
2.62215e-10
6.01933e-09
6.44206e-07
3.56566e-08
1.87901e-09
9.90999e-11
3.95731e-12
3.32947e-14
1e-15
1e-15
1e-15
1e-15
1e-15
1e-15
1e-15
8.64302e-15
1.61088e-13
3.19028e-12
6.43738e-11
1.30563e-09
2.64501e-08
5.24843e-07
1.89399e-07
7.51068e-09
4.15794e-10
2.28334e-11
8.95522e-13
8.73538e-15
1e-15
1e-15
1e-15
1e-15
1e-15
1e-15
1e-15
1.98025e-15
3.47978e-14
6.94226e-13
1.39767e-11
2.83177e-10
5.80339e-09
1.29295e-07
1.36733e-11
2.13252e-10
1.06654e-09
2.93397e-09
6.03029e-09
1.04673e-08
1.62603e-08
2.33402e-08
3.15663e-08
4.07395e-08
5.06174e-08
6.09305e-08
7.13996e-08
8.17513e-08
9.17326e-08
1.01123e-07
1.09745e-07
1.17468e-07
1.24213e-07
1.29953e-07
1.34709e-07
1.38545e-07
1.41562e-07
1.43892e-07
1.45687e-07
1.47112e-07
1.48339e-07
1.4954e-07
1.50881e-07
1.5252e-07
1.54605e-07
1.57274e-07
1.60655e-07
1.64868e-07
1.70022e-07
1.76221e-07
1.83563e-07
1.92137e-07
2.02023e-07
2.13296e-07
2.26015e-07
2.40226e-07
2.55955e-07
2.73206e-07
2.9195e-07
3.12124e-07
3.33625e-07
3.56307e-07
3.79986e-07
4.04446e-07
4.29448e-07
4.54744e-07
4.8009e-07
5.05251e-07
5.30011e-07
5.54177e-07
5.77587e-07
6.00094e-07
6.21601e-07
6.42015e-07
6.61274e-07
6.7934e-07
6.96187e-07
7.11804e-07
7.26193e-07
7.39367e-07
7.51347e-07
7.62164e-07
7.71852e-07
7.80454e-07
7.88015e-07
7.94583e-07
8.00211e-07
8.04949e-07
8.08851e-07
8.11969e-07
8.14353e-07
8.16053e-07
8.17116e-07
8.17588e-07
8.17513e-07
8.16929e-07
8.15869e-07
8.14379e-07
8.12491e-07
8.10239e-07
8.07654e-07
8.04767e-07
8.01605e-07
7.98195e-07
7.94562e-07
7.90731e-07
7.8673e-07
7.82592e-07
7.78362e-07