/*--------------------------------*- C++ -*----------------------------------*\
| =========                 |                                                 |
| \\      /  F ield         | foam-extend: Open Source CFD                    |
|  \\    /   O peration     | Version:     4.0                                |
|   \\  /    A nd           | Web:         http://www.foam-extend.org         |
|    \\/     M anipulation  |                                                 |
\*---------------------------------------------------------------------------*/
FoamFile
{
    version     2.0;
    format      ascii;
    class       volScalarField;
    location    "0.002";
    object      nut;
}
// * * * * * * * * * * * * * * * * * * * * * * * * * * * * * * * * * * * * * //

dimensions      [0 2 -1 0 0 0 0];

internalField   nonuniform List<scalar> 
28770
(
2.67912e-15
6.07349e-15
9.08823e-15
1.18409e-14
1.43437e-14
1.66556e-14
1.87792e-14
2.07227e-14
2.24881e-14
2.40763e-14
2.54875e-14
2.67214e-14
2.77777e-14
2.86564e-14
2.93577e-14
2.98821e-14
3.02307e-14
3.04051e-14
3.04076e-14
3.02411e-14
2.99092e-14
2.94168e-14
2.87697e-14
2.79747e-14
2.70401e-14
2.59751e-14
2.47905e-14
2.34982e-14
2.21118e-14
2.06459e-14
1.91163e-14
1.75403e-14
1.59356e-14
1.43211e-14
1.27159e-14
1.11394e-14
9.61094e-15
8.14927e-15
6.77234e-15
5.49685e-15
4.3377e-15
3.30756e-15
2.41623e-15
1.67009e-15
1.07147e-15
6.18135e-16
3.02661e-16
1.11498e-16
2.29035e-17
1.54698e-18
5.27038e-13
1.06731e-12
1.57285e-12
2.0448e-12
2.47606e-12
2.87446e-12
3.24058e-12
3.57565e-12
3.88004e-12
4.15388e-12
4.39718e-12
4.60991e-12
4.79201e-12
4.94347e-12
5.06432e-12
5.15467e-12
5.2147e-12
5.24468e-12
5.245e-12
5.21618e-12
5.15883e-12
5.07378e-12
4.96206e-12
4.82484e-12
4.66352e-12
4.47972e-12
4.27528e-12
4.05229e-12
3.81305e-12
3.5601e-12
3.29619e-12
3.02426e-12
2.74741e-12
2.46886e-12
2.19194e-12
1.91997e-12
1.6563e-12
1.40417e-12
1.16667e-12
9.46672e-13
7.46762e-13
5.69121e-13
4.15439e-13
2.86814e-13
1.83641e-13
1.05514e-13
5.10827e-14
1.7872e-14
2.58172e-15
2.48238e-17
1.38011e-11
2.31333e-11
3.2445e-11
4.164e-11
5.02516e-11
5.826e-11
6.56415e-11
7.24034e-11
7.85483e-11
8.40773e-11
8.89897e-11
9.32841e-11
9.69594e-11
1.00015e-10
1.02452e-10
1.04272e-10
1.05479e-10
1.06078e-10
1.06078e-10
1.05488e-10
1.0432e-10
1.02593e-10
1.00327e-10
9.75441e-11
9.42744e-11
9.055e-11
8.64084e-11
8.18915e-11
7.70463e-11
7.19241e-11
6.65805e-11
6.1075e-11
5.54704e-11
4.9832e-11
4.4227e-11
3.8723e-11
3.33875e-11
2.8286e-11
2.34813e-11
1.90316e-11
1.49889e-11
1.13972e-11
8.29046e-12
5.68983e-12
3.60138e-12
2.01358e-12
8.99903e-13
2.42618e-13
1.88427e-14
1.20977e-16
1.36188e-10
1.90717e-10
2.50074e-10
3.12657e-10
3.73691e-10
4.31542e-10
4.85365e-10
5.34877e-10
5.7996e-10
6.2056e-10
6.56644e-10
6.88189e-10
7.1518e-10
7.3761e-10
7.55482e-10
7.68809e-10
7.77617e-10
7.81948e-10
7.81857e-10
7.77421e-10
7.68732e-10
7.55915e-10
7.39121e-10
7.18525e-10
6.94337e-10
6.66797e-10
6.36182e-10
6.02802e-10
5.67002e-10
5.29162e-10
4.89691e-10
4.49031e-10
4.07643e-10
3.6601e-10
3.24629e-10
2.83997e-10
2.44613e-10
2.0696e-10
1.71499e-10
1.38657e-10
1.08814e-10
8.22857e-11
5.93099e-11
4.0026e-11
2.4476e-11
1.26653e-11
4.752e-12
9.34419e-13
5.45125e-14
3.27934e-16
7.65286e-10
9.42321e-10
1.15834e-09
1.40084e-09
1.64799e-09
1.88877e-09
2.11648e-09
2.32787e-09
2.52131e-09
2.69598e-09
2.85143e-09
2.98741e-09
3.10375e-09
3.2004e-09
3.27733e-09
3.33458e-09
3.37225e-09
3.39052e-09
3.38963e-09
3.3699e-09
3.33173e-09
3.27567e-09
3.20235e-09
3.11255e-09
3.00717e-09
2.88725e-09
2.75399e-09
2.60874e-09
2.45299e-09
2.28839e-09
2.11673e-09
1.93991e-09
1.75994e-09
1.57892e-09
1.39899e-09
1.22231e-09
1.05104e-09
8.87262e-10
7.32945e-10
5.89913e-10
4.59768e-10
3.43839e-10
2.43154e-10
1.58509e-10
9.08169e-11
4.17259e-11
1.30293e-11
2.12205e-12
1.12847e-13
6.68393e-16
2.98156e-09
3.3883e-09
3.95147e-09
4.62112e-09
5.33204e-09
6.04537e-09
6.734e-09
7.38188e-09
7.97975e-09
8.52235e-09
9.00671e-09
9.43106e-09
9.7944e-09
1.00962e-08
1.03361e-08
1.05143e-08
1.06309e-08
1.06864e-08
1.06816e-08
1.06174e-08
1.04952e-08
1.03165e-08
1.00835e-08
9.79847e-09
9.4643e-09
9.08427e-09
8.66215e-09
8.20218e-09
7.70908e-09
7.18803e-09
6.64466e-09
6.08497e-09
5.51529e-09
4.9422e-09
4.37244e-09
3.81278e-09
3.26992e-09
2.75035e-09
2.26017e-09
1.80504e-09
1.39002e-09
1.01967e-09
6.98489e-10
4.31892e-10
2.27464e-10
9.28796e-11
2.55533e-11
3.81352e-12
1.96338e-13
1.15595e-15
9.02277e-09
9.79094e-09
1.0973e-08
1.24544e-08
1.40847e-08
1.57666e-08
1.74254e-08
1.90107e-08
2.04897e-08
2.1842e-08
2.30549e-08
2.41206e-08
2.50346e-08
2.57939e-08
2.63971e-08
2.68438e-08
2.71341e-08
2.7269e-08
2.72503e-08
2.70804e-08
2.67623e-08
2.63003e-08
2.56994e-08
2.49658e-08
2.41066e-08
2.31302e-08
2.20462e-08
2.08653e-08
1.95995e-08
1.82621e-08
1.68673e-08
1.54304e-08
1.39673e-08
1.24949e-08
1.10301e-08
9.59007e-09
8.19161e-09
6.85111e-09
5.58423e-09
4.40596e-09
3.33116e-09
2.37585e-09
1.55944e-09
9.06183e-10
4.39869e-10
1.64343e-10
4.20561e-11
6.03055e-12
3.06185e-13
1.79702e-15
2.28051e-08
2.41167e-08
2.62351e-08
2.90411e-08
3.22281e-08
3.55986e-08
3.89908e-08
4.22849e-08
4.53959e-08
4.82659e-08
5.08562e-08
5.31418e-08
5.51066e-08
5.67404e-08
5.80373e-08
5.89944e-08
5.96109e-08
5.98882e-08
5.98292e-08
5.94388e-08
5.87235e-08
5.76922e-08
5.63559e-08
5.47277e-08
5.28231e-08
5.06604e-08
4.82602e-08
4.56463e-08
4.28446e-08
3.98839e-08
3.67954e-08
3.36122e-08
3.03693e-08
2.71029e-08
2.385e-08
2.0648e-08
1.75338e-08
1.45445e-08
1.17169e-08
9.08976e-09
6.70676e-09
4.62025e-09
2.89237e-09
1.58363e-09
7.20165e-10
2.53886e-10
6.2452e-11
8.77954e-12
4.42442e-13
2.59122e-15
5.03872e-08
5.24455e-08
5.59059e-08
6.06622e-08
6.62038e-08
7.21892e-08
7.83229e-08
8.437e-08
9.01513e-08
9.55359e-08
1.00431e-07
1.04771e-07
1.08514e-07
1.1163e-07
1.14102e-07
1.15918e-07
1.17074e-07
1.17569e-07
1.17409e-07
1.166e-07
1.15155e-07
1.13091e-07
1.10427e-07
1.07188e-07
1.03406e-07
9.91146e-08
9.43541e-08
8.91701e-08
8.36134e-08
7.77395e-08
7.16088e-08
6.52858e-08
5.88383e-08
5.2337e-08
4.58547e-08
3.94657e-08
3.32464e-08
2.72764e-08
2.16418e-08
1.64412e-08
1.17912e-08
7.82736e-09
4.68356e-09
2.44038e-09
1.05898e-09
3.60078e-10
8.66376e-11
1.20485e-11
6.04368e-13
3.53324e-15
1.00391e-07
1.03457e-07
1.0873e-07
1.16131e-07
1.24936e-07
1.34618e-07
1.44695e-07
1.54766e-07
1.64506e-07
1.73663e-07
1.82048e-07
1.89524e-07
1.95992e-07
2.01384e-07
2.05654e-07
2.08773e-07
2.10726e-07
2.11506e-07
2.11115e-07
2.09566e-07
2.06875e-07
2.03071e-07
1.98188e-07
1.92269e-07
1.85367e-07
1.77543e-07
1.68867e-07
1.59419e-07
1.4929e-07
1.38578e-07
1.27389e-07
1.15839e-07
1.0405e-07
9.21506e-08
8.02751e-08
6.85665e-08
5.71783e-08
4.62802e-08
3.60672e-08
2.67668e-08
1.86383e-08
1.19437e-08
6.87473e-09
3.44917e-09
1.44943e-09
4.81777e-10
1.14404e-10
1.5808e-11
7.9067e-13
4.61717e-15
1.84231e-07
1.8866e-07
1.96346e-07
2.07001e-07
2.20001e-07
2.34528e-07
2.49854e-07
2.65353e-07
2.805e-07
2.94864e-07
3.08109e-07
3.19978e-07
3.3028e-07
3.38874e-07
3.45664e-07
3.50582e-07
3.53588e-07
3.54658e-07
3.5379e-07
3.50993e-07
3.46291e-07
3.39726e-07
3.31349e-07
3.21231e-07
3.09453e-07
2.96114e-07
2.8133e-07
2.65231e-07
2.47965e-07
2.29694e-07
2.10597e-07
1.90867e-07
1.70713e-07
1.50361e-07
1.30054e-07
1.10063e-07
9.0691e-08
7.22871e-08
5.52544e-08
4.00443e-08
2.71169e-08
1.68496e-08
9.40095e-09
4.58842e-09
1.88684e-09
6.18019e-10
1.45503e-10
2.00172e-11
9.99024e-13
5.82992e-15
3.15958e-07
3.22186e-07
3.32774e-07
3.47414e-07
3.65524e-07
3.86015e-07
4.07878e-07
4.30214e-07
4.52237e-07
4.73282e-07
4.92809e-07
5.10385e-07
5.25676e-07
5.38431e-07
5.48463e-07
5.55639e-07
5.5987e-07
5.61103e-07
5.59312e-07
5.545e-07
5.46693e-07
5.35944e-07
5.22327e-07
5.05941e-07
4.86909e-07
4.6538e-07
4.4153e-07
4.15559e-07
3.87696e-07
3.58199e-07
3.27353e-07
2.95471e-07
2.62905e-07
2.30041e-07
1.97318e-07
1.65236e-07
1.3437e-07
1.05384e-07
7.90114e-08
5.60035e-08
3.70124e-08
2.24253e-08
1.22111e-08
5.84294e-09
2.36861e-09
7.68736e-10
1.79992e-10
2.46832e-11
1.22884e-12
7.14978e-15
5.1173e-07
5.20373e-07
5.34373e-07
5.53713e-07
5.77707e-07
6.05123e-07
6.34647e-07
6.65063e-07
6.95278e-07
7.24339e-07
7.51438e-07
7.75914e-07
7.97234e-07
8.14982e-07
8.28838e-07
8.38566e-07
8.43998e-07
8.45019e-07
8.41565e-07
8.33616e-07
8.21187e-07
8.04339e-07
7.83167e-07
7.57802e-07
7.28417e-07
6.95222e-07
6.58471e-07
6.18461e-07
5.75535e-07
5.30085e-07
4.82556e-07
4.33455e-07
3.83358e-07
3.32927e-07
2.82928e-07
2.34251e-07
1.87913e-07
1.45044e-07
1.06809e-07
7.42591e-08
4.81215e-08
2.8595e-08
1.52782e-08
7.20408e-09
2.89431e-09
9.35353e-10
2.1857e-10
2.99497e-11
1.49099e-12
8.68585e-15
7.88721e-07
8.00759e-07
8.18778e-07
8.43619e-07
8.73853e-07
9.08818e-07
9.46786e-07
9.86176e-07
1.02554e-06
1.0636e-06
1.09922e-06
1.13145e-06
1.15951e-06
1.18277e-06
1.20071e-06
1.21296e-06
1.21922e-06
1.21928e-06
1.21301e-06
1.20034e-06
1.18126e-06
1.15582e-06
1.12413e-06
1.08636e-06
1.04273e-06
9.93527e-07
9.39104e-07
8.79887e-07
8.1638e-07
7.49172e-07
6.78951e-07
6.06523e-07
5.32827e-07
4.58966e-07
3.86227e-07
3.16087e-07
2.50195e-07
1.90272e-07
1.37932e-07
9.44199e-08
6.03093e-08
3.53477e-08
1.86166e-08
8.68587e-09
3.47513e-09
1.12419e-09
2.6312e-10
3.60351e-11
1.78524e-12
1.0319e-14
1.1634e-06
1.18042e-06
1.20313e-06
1.23399e-06
1.27073e-06
1.31348e-06
1.36018e-06
1.4089e-06
1.45782e-06
1.50527e-06
1.54978e-06
1.59007e-06
1.62505e-06
1.6538e-06
1.67558e-06
1.68981e-06
1.69602e-06
1.69386e-06
1.6831e-06
1.66357e-06
1.63521e-06
1.59806e-06
1.55221e-06
1.49786e-06
1.43528e-06
1.36486e-06
1.28708e-06
1.20254e-06
1.11197e-06
1.01624e-06
9.16419e-07
8.13762e-07
7.09766e-07
6.06193e-07
5.05076e-07
4.08697e-07
3.19478e-07
2.39783e-07
1.716e-07
1.1616e-07
7.35381e-08
4.26649e-08
2.22352e-08
1.03364e-08
4.16139e-09
1.36498e-09
3.24192e-10
4.489e-11
2.21281e-12
1.19652e-14
1.64907e-06
1.67358e-06
1.70177e-06
1.73893e-06
1.78247e-06
1.83269e-06
1.88778e-06
1.94547e-06
2.00357e-06
2.06006e-06
2.11306e-06
2.16093e-06
2.20224e-06
2.23576e-06
2.26044e-06
2.27546e-06
2.28011e-06
2.27386e-06
2.25631e-06
2.22719e-06
2.18632e-06
2.13369e-06
2.06938e-06
1.99359e-06
1.90666e-06
1.80908e-06
1.70151e-06
1.58478e-06
1.45995e-06
1.32832e-06
1.19148e-06
1.05137e-06
9.10259e-07
7.70823e-07
6.36071e-07
5.09242e-07
3.93595e-07
2.92082e-07
2.06935e-07
1.39295e-07
1.03346e-07
5.61024e-08
2.9616e-08
1.41647e-08
6.02061e-09
2.14137e-09
5.77288e-10
9.88225e-11
7.23923e-12
5.21907e-14
2.25282e-06
2.2886e-06
2.32339e-06
2.36723e-06
2.41795e-06
2.47447e-06
2.53678e-06
2.60223e-06
2.66828e-06
2.7325e-06
2.79267e-06
2.84674e-06
2.89292e-06
2.92962e-06
2.95547e-06
2.96933e-06
2.97022e-06
2.95736e-06
2.93014e-06
2.8881e-06
2.83096e-06
2.75858e-06
2.67099e-06
2.56842e-06
2.45126e-06
2.32015e-06
2.17596e-06
2.01987e-06
1.85337e-06
1.67837e-06
1.49722e-06
1.31274e-06
1.12826e-06
9.47586e-07
7.74871e-07
6.14371e-07
4.70107e-07
3.45418e-07
2.42477e-07
1.61755e-07
1.18039e-07
6.41169e-08
3.33315e-08
1.59528e-08
6.88413e-09
2.49674e-09
6.81053e-10
1.16802e-10
8.22134e-12
5.27199e-14
2.9722e-06
3.02456e-06
3.06744e-06
3.11825e-06
3.17555e-06
3.23771e-06
3.30546e-06
3.37665e-06
3.44846e-06
3.51818e-06
3.58321e-06
3.64116e-06
3.68984e-06
3.72729e-06
3.75178e-06
3.76181e-06
3.75609e-06
3.73355e-06
3.69328e-06
3.63463e-06
3.55709e-06
3.46043e-06
3.34459e-06
3.20978e-06
3.05649e-06
2.88553e-06
2.69807e-06
2.49574e-06
2.28065e-06
2.0555e-06
1.8236e-06
1.58893e-06
1.3561e-06
1.13021e-06
9.16614e-07
7.20544e-07
5.4659e-07
3.98203e-07
2.77237e-07
1.83403e-07
1.32145e-07
7.1497e-08
3.69486e-08
1.77764e-08
7.76681e-09
2.83528e-09
7.72835e-10
1.33466e-10
9.45358e-12
6.12079e-14
3.79216e-06
3.86779e-06
3.92065e-06
3.97873e-06
4.04196e-06
4.10927e-06
4.17996e-06
4.25406e-06
4.32867e-06
4.4008e-06
4.46757e-06
4.52625e-06
4.57428e-06
4.60935e-06
4.62934e-06
4.63237e-06
4.61679e-06
4.58117e-06
4.52431e-06
4.44525e-06
4.34329e-06
4.21799e-06
4.06922e-06
3.89718e-06
3.70246e-06
3.4861e-06
3.24968e-06
2.99538e-06
2.7261e-06
2.44552e-06
2.15816e-06
1.86934e-06
1.58509e-06
1.31188e-06
1.05625e-06
8.2424e-07
6.20789e-07
4.49192e-07
3.10763e-07
2.04461e-07
1.46433e-07
7.92803e-08
4.10321e-08
1.9874e-08
8.75376e-09
2.78297e-09
7.25394e-10
1.24122e-10
8.12942e-12
3.13214e-14
4.68282e-06
4.78919e-06
4.85415e-06
4.91984e-06
4.98825e-06
5.05948e-06
5.13138e-06
5.20519e-06
5.2791e-06
5.35003e-06
5.41489e-06
5.47068e-06
5.51452e-06
5.54374e-06
5.55585e-06
5.54856e-06
5.51985e-06
5.4679e-06
5.39116e-06
5.28837e-06
5.15855e-06
5.00108e-06
4.81571e-06
4.60264e-06
4.36259e-06
4.0969e-06
3.80762e-06
3.49765e-06
3.17081e-06
2.83194e-06
2.48689e-06
2.14245e-06
1.80613e-06
1.48572e-06
1.1888e-06
9.22026e-07
6.90461e-07
4.97036e-07
3.42367e-07
2.24623e-07
1.60299e-07
8.74062e-08
4.54143e-08
2.21162e-08
9.76356e-09
3.09621e-09
8.31232e-10
1.44615e-10
9.58552e-12
3.92353e-14
5.59929e-06
5.74331e-06
5.82234e-06
5.89588e-06
5.96864e-06
6.04199e-06
6.11458e-06
6.18506e-06
6.2547e-06
6.32078e-06
6.38008e-06
6.42942e-06
6.46566e-06
6.48577e-06
6.48691e-06
6.46643e-06
6.42188e-06
6.35108e-06
6.2521e-06
6.12334e-06
5.96353e-06
5.77186e-06
5.54797e-06
5.29207e-06
5.00505e-06
4.68858e-06
4.34528e-06
3.97884e-06
3.5941e-06
3.19715e-06
2.79525e-06
2.39665e-06
2.01028e-06
1.64512e-06
1.30958e-06
1.01071e-06
7.53492e-07
5.40357e-07
3.71124e-07
2.43105e-07
1.72898e-07
9.51489e-08
4.95825e-08
2.42127e-08
1.07099e-08
3.40011e-09
9.17948e-10
1.58271e-10
1.06966e-11
4.48088e-14
6.48392e-06
6.67009e-06
6.7644e-06
6.8457e-06
6.92198e-06
6.99601e-06
7.06744e-06
7.13397e-06
7.1966e-06
7.25481e-06
7.30558e-06
7.34562e-06
7.37162e-06
7.38025e-06
7.36834e-06
7.33286e-06
7.271e-06
7.18019e-06
7.05814e-06
6.90293e-06
6.71301e-06
6.48736e-06
6.22552e-06
5.92774e-06
5.59509e-06
5.22963e-06
4.83456e-06
4.41438e-06
3.975e-06
3.52372e-06
3.06916e-06
2.62095e-06
2.18924e-06
1.78403e-06
1.41433e-06
1.08737e-06
8.07918e-07
5.77821e-07
3.96117e-07
2.59256e-07
1.83738e-07
1.01968e-07
5.32262e-08
2.60558e-08
1.15648e-08
3.69172e-09
1.00664e-09
1.77131e-10
1.23391e-11
4.8863e-14
7.27157e-06
7.50001e-06
7.6093e-06
7.69771e-06
7.77661e-06
7.85026e-06
7.91915e-06
7.98201e-06
8.03676e-06
8.08526e-06
8.12579e-06
8.15509e-06
8.16967e-06
8.16597e-06
8.1405e-06
8.08992e-06
8.01108e-06
7.90104e-06
7.75723e-06
7.57739e-06
7.35974e-06
7.10308e-06
6.80689e-06
6.47143e-06
6.09798e-06
5.68897e-06
5.24816e-06
4.78083e-06
4.29383e-06
3.79559e-06
3.29591e-06
2.80558e-06
2.33577e-06
1.89722e-06
1.49937e-06
1.14947e-06
8.51981e-07
6.0821e-07
4.16488e-07
2.72533e-07
1.9259e-07
1.07742e-07
5.63591e-08
2.76847e-08
1.23625e-08
4.00287e-09
1.10577e-09
2.00178e-10
1.20808e-11
1.28153e-13
7.89735e-06
8.16249e-06
8.28452e-06
8.37855e-06
8.45909e-06
8.5317e-06
8.59759e-06
8.65605e-06
8.70526e-06
8.74428e-06
8.77463e-06
8.79361e-06
8.79752e-06
8.78259e-06
8.74506e-06
8.68131e-06
8.58792e-06
8.46169e-06
8.29976e-06
8.09966e-06
7.85939e-06
7.57765e-06
7.25381e-06
6.88823e-06
6.48232e-06
6.03883e-06
5.56201e-06
5.05777e-06
4.53373e-06
3.99921e-06
3.46493e-06
2.94254e-06
2.44397e-06
1.98046e-06
1.5617e-06
1.19489e-06
8.84204e-07
6.30477e-07
4.31498e-07
2.82444e-07
1.99128e-07
1.12404e-07
5.89884e-08
2.91057e-08
1.31074e-08
4.31723e-09
1.22732e-09
2.30791e-10
1.45762e-11
1.60981e-13
8.3102e-06
8.60131e-06
8.73246e-06
8.83022e-06
8.91154e-06
8.98299e-06
9.04632e-06
9.10117e-06
9.14606e-06
9.17914e-06
9.20142e-06
9.21247e-06
9.20845e-06
9.18532e-06
9.13912e-06
9.06604e-06
8.96248e-06
8.82505e-06
8.65073e-06
8.43687e-06
8.18138e-06
7.88282e-06
7.54059e-06
7.15503e-06
6.7277e-06
6.26157e-06
5.76121e-06
5.23295e-06
4.68494e-06
4.12706e-06
3.57062e-06
3.02784e-06
2.51108e-06
2.0319e-06
1.60009e-06
1.22281e-06
9.03993e-07
6.44176e-07
4.40789e-07
2.88673e-07
2.02983e-07
1.15705e-07
6.09434e-08
3.02048e-08
1.37145e-08
4.60003e-09
1.36697e-09
2.84316e-10
3.61688e-11
8.25814e-13
8.4614e-06
8.7623e-06
8.89679e-06
8.9956e-06
9.07677e-06
9.1473e-06
9.20919e-06
9.26222e-06
9.30501e-06
9.33578e-06
9.35448e-06
9.36207e-06
9.3547e-06
9.32817e-06
9.27843e-06
9.20162e-06
9.09404e-06
8.95226e-06
8.77319e-06
8.55413e-06
8.29294e-06
7.98817e-06
7.63919e-06
7.24638e-06
6.81134e-06
6.33712e-06
5.82841e-06
5.2917e-06
4.73531e-06
4.16933e-06
3.60528e-06
3.05556e-06
2.53267e-06
2.04826e-06
1.61216e-06
1.23148e-06
9.10068e-07
6.48348e-07
4.43612e-07
2.90579e-07
2.03592e-07
1.17197e-07
6.18645e-08
3.07351e-08
1.40256e-08
4.75729e-09
1.4548e-09
3.32057e-10
5.50013e-11
4.2692e-12
8.33559e-06
8.62751e-06
8.75849e-06
8.85518e-06
8.93514e-06
9.0051e-06
9.06693e-06
9.12027e-06
9.16362e-06
9.19518e-06
9.21599e-06
9.22569e-06
9.22037e-06
9.19597e-06
9.14853e-06
9.07424e-06
8.9695e-06
8.83091e-06
8.65546e-06
8.44049e-06
8.18393e-06
7.88436e-06
7.54116e-06
7.1547e-06
6.72656e-06
6.25971e-06
5.75874e-06
5.23e-06
4.68164e-06
4.12355e-06
3.56704e-06
3.02434e-06
2.50777e-06
2.02888e-06
1.59744e-06
1.22057e-06
9.02186e-07
6.42796e-07
4.39802e-07
2.88025e-07
2.00878e-07
1.16539e-07
6.14749e-08
3.05071e-08
1.38886e-08
4.65112e-09
1.39369e-09
2.99222e-10
3.88097e-11
1.12955e-12
7.947e-06
8.21323e-06
8.33436e-06
8.42595e-06
8.50367e-06
8.57332e-06
8.63626e-06
8.69176e-06
8.73802e-06
8.7741e-06
8.8017e-06
8.81809e-06
8.81951e-06
8.80215e-06
8.76225e-06
8.69618e-06
8.60053e-06
8.47209e-06
8.308e-06
8.10579e-06
7.8635e-06
7.57981e-06
7.25414e-06
6.88685e-06
6.4794e-06
6.03456e-06
5.55661e-06
5.05147e-06
4.52681e-06
3.99193e-06
3.45756e-06
2.93536e-06
2.4372e-06
1.9743e-06
1.55629e-06
1.19033e-06
8.80519e-07
6.27652e-07
4.29467e-07
2.81124e-07
1.95157e-07
1.13838e-07
5.98739e-08
2.95873e-08
1.33601e-08
4.36354e-09
1.25083e-09
2.40396e-10
2.36261e-11
1.70206e-13
7.34258e-06
7.57159e-06
7.67881e-06
7.76326e-06
7.83795e-06
7.90733e-06
7.97199e-06
8.03065e-06
8.08124e-06
8.12572e-06
8.16248e-06
8.18819e-06
8.19928e-06
8.19219e-06
8.16342e-06
8.1096e-06
8.0276e-06
7.91448e-06
7.76766e-06
7.58488e-06
7.3644e-06
7.10505e-06
6.8063e-06
6.46848e-06
6.0929e-06
5.68201e-06
5.23963e-06
4.77108e-06
4.28323e-06
3.78453e-06
3.28478e-06
2.79475e-06
2.32558e-06
1.88796e-06
1.49124e-06
1.14261e-06
8.46428e-07
6.0394e-07
4.13409e-07
2.70547e-07
1.87018e-07
1.09592e-07
5.74476e-08
2.82426e-08
1.26323e-08
4.03553e-09
1.12311e-09
2.05158e-10
1.90774e-11
1.30291e-13
6.56864e-06
6.75496e-06
6.84648e-06
6.92289e-06
6.99408e-06
7.06299e-06
7.12932e-06
7.19087e-06
7.24856e-06
7.3021e-06
7.34842e-06
7.38418e-06
7.40601e-06
7.4106e-06
7.39474e-06
7.35539e-06
7.28975e-06
7.19523e-06
7.06957e-06
6.91083e-06
6.71751e-06
6.48861e-06
6.22371e-06
5.92309e-06
5.58787e-06
5.22016e-06
4.82321e-06
4.40157e-06
3.96118e-06
3.50937e-06
3.05475e-06
2.60695e-06
2.17607e-06
1.77203e-06
1.40379e-06
1.07846e-06
8.0069e-07
5.72257e-07
3.92104e-07
2.56679e-07
1.76748e-07
1.04155e-07
5.44687e-08
2.66626e-08
1.18324e-08
3.71901e-09
1.01792e-09
1.80743e-10
1.28146e-11
5.3063e-14
5.6916e-06
5.83506e-06
5.91081e-06
5.97891e-06
6.04613e-06
6.1139e-06
6.18099e-06
6.24603e-06
6.31046e-06
6.37158e-06
6.42611e-06
6.47082e-06
6.50255e-06
6.51828e-06
6.51512e-06
6.49041e-06
6.44172e-06
6.36685e-06
6.26389e-06
6.13125e-06
5.9677e-06
5.77245e-06
5.54517e-06
5.28613e-06
4.99626e-06
4.67729e-06
4.3319e-06
3.96382e-06
3.57794e-06
3.18038e-06
2.7784e-06
2.38025e-06
1.9948e-06
1.63098e-06
1.29711e-06
1.00012e-06
7.4488e-07
5.33721e-07
3.66343e-07
2.40049e-07
1.64766e-07
9.77056e-08
5.10208e-08
2.48984e-08
1.09942e-08
3.41812e-09
9.2569e-10
1.60358e-10
1.05663e-11
4.28758e-14
4.77638e-06
4.88153e-06
4.94299e-06
5.00312e-06
5.06593e-06
5.13155e-06
5.19791e-06
5.26636e-06
5.33515e-06
5.40116e-06
5.46125e-06
5.51239e-06
5.55171e-06
5.57649e-06
5.58422e-06
5.57263e-06
5.53969e-06
5.48357e-06
5.40275e-06
5.29597e-06
5.16228e-06
5.00111e-06
4.81223e-06
4.59589e-06
4.35287e-06
4.08456e-06
3.79308e-06
3.48137e-06
3.15329e-06
2.81373e-06
2.46855e-06
2.12454e-06
1.78915e-06
1.47014e-06
1.17498e-06
9.10218e-07
6.80806e-07
4.89563e-07
3.36945e-07
2.21153e-07
1.51127e-07
9.02737e-08
4.70645e-08
2.29101e-08
1.00881e-08
3.11901e-09
8.39618e-10
1.46852e-10
9.52476e-12
3.7119e-14
3.88152e-06
3.9554e-06
4.0048e-06
4.05756e-06
4.11549e-06
4.17754e-06
4.24303e-06
4.31218e-06
4.38204e-06
4.44956e-06
4.51185e-06
4.56614e-06
4.60987e-06
4.64069e-06
4.65649e-06
4.65538e-06
4.63571e-06
4.59604e-06
4.53521e-06
4.45227e-06
4.34653e-06
4.2176e-06
4.06539e-06
3.89013e-06
3.69247e-06
3.4735e-06
3.23486e-06
2.97878e-06
2.70822e-06
2.42689e-06
2.13933e-06
1.85086e-06
1.56748e-06
1.29561e-06
1.04172e-06
8.11723e-07
6.10474e-07
4.41129e-07
3.04822e-07
2.00608e-07
1.36794e-07
8.2137e-08
4.26711e-08
2.06931e-08
9.10194e-09
2.80702e-09
7.36e-10
1.27438e-10
8.4148e-12
3.12208e-14
3.05319e-06
3.10349e-06
3.14317e-06
3.18918e-06
3.24175e-06
3.29922e-06
3.36243e-06
3.42928e-06
3.49691e-06
3.56254e-06
3.62357e-06
3.67758e-06
3.72236e-06
3.75596e-06
3.77662e-06
3.78286e-06
3.77337e-06
3.74709e-06
3.70315e-06
3.64088e-06
3.55983e-06
3.45977e-06
3.3407e-06
3.20287e-06
3.0468e-06
2.87336e-06
2.68377e-06
2.47972e-06
2.26335e-06
2.0374e-06
1.80521e-06
1.57078e-06
1.33869e-06
1.11401e-06
9.02019e-07
7.07863e-07
5.36028e-07
3.8982e-07
2.70929e-07
1.79228e-07
1.22265e-07
7.39239e-08
3.82915e-08
1.84473e-08
8.07607e-09
2.94436e-09
8.00271e-10
1.40571e-10
1.02705e-11
6.68217e-14
2.32276e-06
2.35641e-06
2.38842e-06
2.42816e-06
2.47488e-06
2.52747e-06
2.58602e-06
2.64786e-06
2.71038e-06
2.77115e-06
2.82791e-06
2.87861e-06
2.92143e-06
2.95478e-06
2.97729e-06
2.98781e-06
2.98538e-06
2.96922e-06
2.93873e-06
2.89348e-06
2.8332e-06
2.75779e-06
2.66731e-06
2.56201e-06
2.44234e-06
2.30897e-06
2.16282e-06
2.00511e-06
1.83739e-06
1.66159e-06
1.48009e-06
1.29572e-06
1.11182e-06
9.32164e-07
7.60846e-07
6.02055e-07
4.59715e-07
3.37042e-07
2.36112e-07
1.57561e-07
1.08175e-07
6.62905e-08
3.43655e-08
1.64629e-08
7.14135e-09
2.6012e-09
7.10951e-10
1.21831e-10
8.53857e-12
5.49354e-14
1.70673e-06
1.72925e-06
1.75516e-06
1.789e-06
1.82934e-06
1.87647e-06
1.92859e-06
1.9834e-06
2.03869e-06
2.09238e-06
2.14262e-06
2.18772e-06
2.22625e-06
2.25697e-06
2.27886e-06
2.29106e-06
2.2929e-06
2.28386e-06
2.26353e-06
2.23167e-06
2.18812e-06
2.13289e-06
2.06609e-06
1.98794e-06
1.89883e-06
1.79928e-06
1.68999e-06
1.57181e-06
1.44586e-06
1.31346e-06
1.17623e-06
1.03612e-06
8.95421e-07
7.56779e-07
6.23174e-07
4.97794e-07
3.8383e-07
2.8416e-07
2.00998e-07
1.35605e-07
9.27116e-08
5.87102e-08
3.07715e-08
1.4693e-08
6.29983e-09
2.26628e-09
6.15852e-10
1.05537e-10
7.45076e-12
4.87785e-14
1.2088e-06
1.22411e-06
1.24507e-06
1.27339e-06
1.30772e-06
1.34815e-06
1.39263e-06
1.43918e-06
1.48594e-06
1.53124e-06
1.5736e-06
1.6117e-06
1.64447e-06
1.67099e-06
1.69052e-06
1.70248e-06
1.70641e-06
1.70197e-06
1.68894e-06
1.66717e-06
1.63662e-06
1.59732e-06
1.54942e-06
1.49312e-06
1.42873e-06
1.35666e-06
1.27742e-06
1.19165e-06
1.10009e-06
1.00367e-06
9.03446e-07
8.00712e-07
6.96968e-07
5.93972e-07
4.93744e-07
3.98532e-07
3.10716e-07
2.32616e-07
1.66238e-07
1.1297e-07
7.17256e-08
4.1496e-08
2.16216e-08
1.00498e-08
4.0641e-09
1.33662e-09
3.16677e-10
4.40386e-11
2.15682e-12
1.16179e-14
8.2282e-07
8.33513e-07
8.50278e-07
8.73288e-07
9.01811e-07
9.35145e-07
9.71532e-07
1.00936e-06
1.04716e-06
1.08363e-06
1.11764e-06
1.14822e-06
1.17461e-06
1.19615e-06
1.21236e-06
1.22284e-06
1.22733e-06
1.22561e-06
1.21756e-06
1.20313e-06
1.18232e-06
1.1552e-06
1.12189e-06
1.08257e-06
1.0375e-06
9.86974e-07
9.31376e-07
8.71152e-07
8.06829e-07
7.39016e-07
6.68422e-07
5.95867e-07
5.223e-07
4.48829e-07
3.76733e-07
3.0748e-07
2.42684e-07
1.84012e-07
1.33034e-07
9.11667e-08
5.84473e-08
3.42284e-08
1.80616e-08
8.45748e-09
3.39681e-09
1.09964e-09
2.57766e-10
3.52556e-11
1.74483e-12
1.01101e-14
5.36106e-07
5.43766e-07
5.56934e-07
5.75036e-07
5.97906e-07
6.24244e-07
6.52711e-07
6.82067e-07
7.11199e-07
7.39145e-07
7.65092e-07
7.88378e-07
8.08472e-07
8.24962e-07
8.37533e-07
8.45955e-07
8.50066e-07
8.49757e-07
8.44973e-07
8.35702e-07
8.21973e-07
8.03855e-07
7.81456e-07
7.54923e-07
7.24441e-07
6.90237e-07
6.52583e-07
6.1179e-07
5.68219e-07
5.22278e-07
4.74425e-07
4.2518e-07
3.75127e-07
3.24936e-07
2.75375e-07
2.27333e-07
1.81819e-07
1.39923e-07
1.02703e-07
7.12927e-08
4.6228e-08
2.74839e-08
1.47165e-08
6.95021e-09
2.79768e-09
9.04562e-10
2.11448e-10
2.89339e-11
1.43712e-12
8.35483e-15
3.32466e-07
3.38035e-07
3.48125e-07
3.61995e-07
3.79424e-07
3.99255e-07
4.20459e-07
4.42116e-07
4.63429e-07
4.83729e-07
5.02472e-07
5.19227e-07
5.33666e-07
5.45538e-07
5.54663e-07
5.60914e-07
5.64207e-07
5.64492e-07
5.61752e-07
5.55995e-07
5.47257e-07
5.35596e-07
5.21097e-07
5.03869e-07
4.84044e-07
4.61784e-07
4.37273e-07
4.10726e-07
3.82382e-07
3.52509e-07
3.21402e-07
2.89385e-07
2.56814e-07
2.24083e-07
1.91633e-07
1.59967e-07
1.29665e-07
1.0138e-07
7.57635e-08
5.35595e-08
3.53524e-08
2.14114e-08
1.16652e-08
5.58116e-09
2.26437e-09
7.35199e-10
1.72148e-10
2.35797e-11
1.17205e-12
6.81512e-15
1.94756e-07
1.98783e-07
2.06209e-07
2.16436e-07
2.29065e-07
2.43224e-07
2.5817e-07
2.73264e-07
2.87973e-07
3.01864e-07
3.14603e-07
3.25936e-07
3.35673e-07
3.4368e-07
3.49863e-07
3.5416e-07
3.56533e-07
3.56964e-07
3.55453e-07
3.52015e-07
3.46682e-07
3.39497e-07
3.30521e-07
3.19828e-07
3.07508e-07
2.93667e-07
2.78428e-07
2.61928e-07
2.44324e-07
2.25783e-07
2.06493e-07
1.86651e-07
1.66472e-07
1.46186e-07
1.2604e-07
1.06303e-07
8.72817e-08
6.93325e-08
5.28167e-08
3.81577e-08
2.57779e-08
1.59919e-08
8.91305e-09
4.3451e-09
1.78636e-09
5.84712e-10
1.3748e-10
1.8865e-11
9.38235e-13
5.45565e-15
1.06647e-07
1.09497e-07
1.14661e-07
1.21862e-07
1.30495e-07
1.39996e-07
1.49874e-07
1.59721e-07
1.69208e-07
1.78083e-07
1.86161e-07
1.93305e-07
1.99421e-07
2.04445e-07
2.08333e-07
2.11059e-07
2.12611e-07
2.12985e-07
2.12186e-07
2.10229e-07
2.07136e-07
2.02936e-07
1.9767e-07
1.91383e-07
1.84133e-07
1.75986e-07
1.67016e-07
1.57308e-07
1.46957e-07
1.36065e-07
1.24744e-07
1.13112e-07
1.01294e-07
8.94221e-08
7.76337e-08
6.60714e-08
5.48878e-08
4.42581e-08
3.43633e-08
2.54114e-08
1.76386e-08
1.12729e-08
6.47374e-09
3.24091e-09
1.35972e-09
4.50949e-10
1.0678e-10
1.46984e-11
7.31759e-13
4.2553e-15
5.38068e-08
5.57706e-08
5.92116e-08
6.38952e-08
6.93757e-08
7.52877e-08
8.13295e-08
8.7263e-08
9.29087e-08
9.81367e-08
1.02857e-07
1.07006e-07
1.10545e-07
1.13446e-07
1.15694e-07
1.17279e-07
1.18199e-07
1.18455e-07
1.18053e-07
1.17004e-07
1.15321e-07
1.13022e-07
1.1013e-07
1.06674e-07
1.02684e-07
9.81997e-08
9.3263e-08
8.79223e-08
8.22309e-08
7.6247e-08
7.00332e-08
6.36559e-08
5.7185e-08
5.06926e-08
4.42533e-08
3.79421e-08
3.18339e-08
2.60098e-08
2.05522e-08
1.55506e-08
1.11099e-08
7.34888e-09
4.38261e-09
2.27624e-09
9.84764e-10
3.33618e-10
7.99454e-11
1.10637e-11
5.51781e-13
3.20922e-15
2.44892e-08
2.57757e-08
2.79141e-08
3.07093e-08
3.38873e-08
3.72362e-08
4.05922e-08
4.38344e-08
4.68787e-08
4.96687e-08
5.21678e-08
5.43526e-08
5.62088e-08
5.77277e-08
5.89045e-08
5.97375e-08
6.02272e-08
6.03754e-08
6.01864e-08
5.96659e-08
5.88218e-08
5.76639e-08
5.62043e-08
5.44575e-08
5.24404e-08
5.01725e-08
4.76762e-08
4.49762e-08
4.21002e-08
3.90782e-08
3.59425e-08
3.27275e-08
2.9469e-08
2.6204e-08
2.29703e-08
1.98057e-08
1.67466e-08
1.38299e-08
1.10911e-08
8.56561e-09
6.29201e-09
4.31576e-09
2.69026e-09
1.46672e-09
6.64118e-10
2.32986e-10
5.70116e-11
7.96521e-12
3.98468e-13
2.31834e-15
9.74756e-09
1.05214e-08
1.17324e-08
1.32242e-08
1.48623e-08
1.65425e-08
1.81898e-08
1.9754e-08
2.12035e-08
2.2519e-08
2.36892e-08
2.47073e-08
2.55696e-08
2.62741e-08
2.682e-08
2.72072e-08
2.74367e-08
2.75097e-08
2.74285e-08
2.71959e-08
2.68158e-08
2.62927e-08
2.56324e-08
2.48415e-08
2.39278e-08
2.29004e-08
2.17695e-08
2.05466e-08
1.92443e-08
1.78765e-08
1.64581e-08
1.50047e-08
1.3533e-08
1.20598e-08
1.06026e-08
9.17861e-09
7.80454e-09
6.49642e-09
5.26927e-09
4.1368e-09
3.11197e-09
2.20831e-09
1.44206e-09
8.33591e-10
4.02413e-10
1.49445e-10
3.79947e-11
5.40584e-12
2.71958e-13
1.58337e-15
3.24213e-09
3.66233e-09
4.24701e-09
4.92798e-09
5.64726e-09
6.36317e-09
7.0491e-09
7.68955e-09
8.27602e-09
8.80399e-09
9.27108e-09
9.67605e-09
1.00183e-08
1.02976e-08
1.0514e-08
1.06678e-08
1.07593e-08
1.07894e-08
1.07588e-08
1.06688e-08
1.05209e-08
1.0317e-08
1.00593e-08
9.7505e-09
9.39366e-09
8.99237e-09
8.55067e-09
8.07308e-09
7.5646e-09
7.03066e-09
6.47713e-09
5.91022e-09
5.33646e-09
4.76256e-09
4.19532e-09
3.64162e-09
3.10807e-09
2.60098e-09
2.12617e-09
1.68879e-09
1.29324e-09
9.43235e-10
6.42299e-10
3.94692e-10
2.06506e-10
8.37194e-11
2.28511e-11
3.37761e-12
1.71936e-13
1.0024e-15
8.38213e-10
1.02513e-09
1.25198e-09
1.50065e-09
1.75219e-09
1.99473e-09
2.22206e-09
2.43127e-09
2.6211e-09
2.79103e-09
2.94083e-09
3.07043e-09
3.17983e-09
3.26905e-09
3.33819e-09
3.38735e-09
3.41672e-09
3.42652e-09
3.41706e-09
3.38872e-09
3.342e-09
3.27749e-09
3.19593e-09
3.09815e-09
2.98516e-09
2.85808e-09
2.7182e-09
2.56698e-09
2.40599e-09
2.23696e-09
2.06177e-09
1.88239e-09
1.7009e-09
1.51943e-09
1.34015e-09
1.16525e-09
9.96858e-10
8.36985e-10
6.87507e-10
5.5008e-10
4.26091e-10
3.16613e-10
2.22395e-10
1.43945e-10
8.18438e-11
3.7291e-11
1.15358e-11
1.85721e-12
9.73887e-14
5.6967e-16
1.50416e-10
2.09001e-10
2.7194e-10
3.36537e-10
3.98952e-10
4.5738e-10
5.11191e-10
5.60224e-10
6.0447e-10
6.43951e-10
6.78695e-10
7.08723e-10
7.34056e-10
7.54713e-10
7.7072e-10
7.82108e-10
7.88923e-10
7.91216e-10
7.89058e-10
7.82543e-10
7.71785e-10
7.56923e-10
7.38126e-10
7.1559e-10
6.89544e-10
6.60253e-10
6.28014e-10
5.93161e-10
5.56061e-10
5.17114e-10
4.76752e-10
4.3543e-10
3.93627e-10
3.5184e-10
3.10567e-10
2.70313e-10
2.31568e-10
1.94803e-10
1.60451e-10
1.289e-10
1.00481e-10
7.54475e-11
5.39724e-11
3.61304e-11
2.19012e-11
1.12252e-11
4.16648e-12
8.08294e-13
4.635e-14
2.74313e-16
1.54004e-11
2.55694e-11
3.55186e-11
4.50515e-11
5.389e-11
6.19912e-11
6.9378e-11
7.60772e-11
8.21082e-11
8.74834e-11
9.22105e-11
9.62945e-11
9.9739e-11
1.02547e-10
1.04723e-10
1.06271e-10
1.07198e-10
1.0751e-10
1.07217e-10
1.06332e-10
1.04872e-10
1.02853e-10
1.00301e-10
9.72405e-11
9.3704e-11
8.97271e-11
8.53504e-11
8.06192e-11
7.55835e-11
7.02978e-11
6.48204e-11
5.92135e-11
5.35421e-11
4.78734e-11
4.22753e-11
3.6816e-11
3.15623e-11
2.65778e-11
2.19215e-11
1.76464e-11
1.37974e-11
1.04103e-11
7.5096e-12
5.10726e-12
3.20052e-12
1.76993e-12
7.81334e-13
2.07411e-13
1.57706e-14
9.90241e-17