/*--------------------------------*- C++ -*----------------------------------*\
| =========                 |                                                 |
| \\      /  F ield         | foam-extend: Open Source CFD                    |
|  \\    /   O peration     | Version:     4.0                                |
|   \\  /    A nd           | Web:         http://www.foam-extend.org         |
|    \\/     M anipulation  |                                                 |
\*---------------------------------------------------------------------------*/
FoamFile
{
    version     2.0;
    format      ascii;
    class       volScalarField;
    location    "0.002";
    object      omega;
}
// * * * * * * * * * * * * * * * * * * * * * * * * * * * * * * * * * * * * * //

dimensions      [0 0 -1 0 0 0 0];

internalField   nonuniform List<scalar> 
28770
(
1.87595e+07
1.87595e+07
1.87595e+07
1.87595e+07
1.87595e+07
1.87595e+07
1.87595e+07
1.87595e+07
1.87595e+07
1.87595e+07
1.87595e+07
1.87595e+07
1.87595e+07
1.87595e+07
1.87595e+07
1.87595e+07
1.87595e+07
1.87595e+07
1.87595e+07
1.87595e+07
1.87595e+07
1.87595e+07
1.87595e+07
1.87595e+07
1.87595e+07
1.87595e+07
1.87595e+07
1.87595e+07
1.87595e+07
1.87595e+07
1.87595e+07
1.87595e+07
1.87595e+07
1.87595e+07
1.87595e+07
1.87595e+07
1.87595e+07
1.87595e+07
1.87595e+07
1.87595e+07
1.87595e+07
1.87595e+07
1.87595e+07
1.87595e+07
1.87595e+07
1.87595e+07
1.87595e+07
1.87595e+07
1.87595e+07
1.87595e+07
2.70001e+06
3.18572e+06
3.23008e+06
3.23475e+06
3.23538e+06
3.23549e+06
3.23552e+06
3.23553e+06
3.23554e+06
3.23554e+06
3.23554e+06
3.23554e+06
3.23554e+06
3.23554e+06
3.23554e+06
3.23554e+06
3.23554e+06
3.23554e+06
3.23555e+06
3.23555e+06
3.23555e+06
3.23555e+06
3.23555e+06
3.23555e+06
3.23555e+06
3.23555e+06
3.23555e+06
3.23556e+06
3.23556e+06
3.23556e+06
3.23556e+06
3.23557e+06
3.23557e+06
3.23557e+06
3.23558e+06
3.23558e+06
3.23558e+06
3.23559e+06
3.2356e+06
3.23561e+06
3.23562e+06
3.23565e+06
3.23572e+06
3.2359e+06
3.23649e+06
3.23897e+06
3.25311e+06
3.36216e+06
4.4313e+06
1.79872e+07
679328
1.0171e+06
1.08473e+06
1.09848e+06
1.10156e+06
1.10235e+06
1.10259e+06
1.10267e+06
1.1027e+06
1.10272e+06
1.10272e+06
1.10273e+06
1.10273e+06
1.10273e+06
1.10273e+06
1.10273e+06
1.10273e+06
1.10273e+06
1.10273e+06
1.10273e+06
1.10273e+06
1.10274e+06
1.10274e+06
1.10274e+06
1.10274e+06
1.10274e+06
1.10274e+06
1.10274e+06
1.10274e+06
1.10274e+06
1.10275e+06
1.10275e+06
1.10275e+06
1.10275e+06
1.10276e+06
1.10277e+06
1.10278e+06
1.1028e+06
1.10283e+06
1.10288e+06
1.103e+06
1.10324e+06
1.10381e+06
1.10533e+06
1.10992e+06
1.12605e+06
1.19193e+06
1.50336e+06
3.24975e+06
1.79872e+07
228559
430976
496261
516075
522229
524266
524997
525284
525407
525464
525492
525507
525515
525520
525523
525525
525527
525528
525529
525529
525530
525531
525532
525533
525534
525535
525537
525539
525541
525544
525548
525554
525562
525573
525590
525617
525660
525731
525857
526088
526539
527478
529579
534677
548190
587444
712736
1.16001e+06
3.12318e+06
1.79872e+07
96079.2
214045
266499
287519
295773
299080
300462
301070
301354
301494
301566
301606
301629
301642
301651
301656
301660
301663
301665
301666
301668
301669
301671
301673
301675
301677
301681
301685
301690
301698
301708
301723
301744
301774
301821
301894
302012
302207
302544
303150
304289
306543
311252
321678
346217
407822
574724
1.08476e+06
3.10621e+06
1.79872e+07
47891.2
118579
157739
176957
185964
190160
192147
193115
193605
193861
194002
194081
194128
194157
194175
194187
194195
194200
194205
194208
194211
194214
194217
194221
194225
194230
194237
194246
194258
194274
194296
194327
194373
194441
194542
194700
194950
195357
196043
197238
199394
203438
211347
227494
262027
340001
530297
1.06583e+06
3.10319e+06
1.79872e+07
27066.5
71361.8
99946
116247
125011
129618
132038
133326
134026
134416
134640
134773
134853
134903
134936
134957
134972
134983
134991
134997
135003
135009
135014
135021
135029
135038
135051
135067
135089
135119
135161
135221
135306
135431
135617
135901
136344
137052
138210
140159
143535
149562
160675
181883
224021
312384
514655
1.06034e+06
3.10247e+06
1.79872e+07
16744.5
45805.7
66726.3
80062
88043.3
92670.5
95322.3
96844.7
97727.8
98248.3
98561.1
98753.2
98873.8
98951.4
99002.6
99037.2
99061.5
99079.1
99092.7
99103.7
99113.4
99122.8
99132.7
99143.8
99157
99173.5
99194.7
99222.6
99260
99310.8
99381.2
99479.9
99620.7
99824.7
100125
100576
101265
102340
104052
106840
111487
119424
133348
158531
205906
300417
508647
1.0585e+06
3.10225e+06
1.79872e+07
11081
31032.7
46484.9
57216.4
64210.7
68604.5
71313.7
72974.1
73994.5
74626.9
75023.9
75277
75441.2
75549.7
75623
75673.7
75709.9
75736.6
75757.3
75774.4
75789.6
75804.4
75819.9
75837.4
75858.3
75884.2
75917.5
75961
76019.1
76097.7
76205.5
76355.6
76567.2
76870.1
77309.7
77958.1
78929.7
80410.5
82707.4
86335.9
92179.6
101790
117975
146055
196847
294899
506124
1.0578e+06
3.10217e+06
1.79872e+07
7717.11
21944.8
33542.3
42146.9
48149
52176.1
54817.1
56529.8
57637.3
58355.5
58824.8
59134.7
59342.1
59483
59580.4
59649.3
59699.3
59736.9
59766.6
59791.3
59813.6
59835.3
59858.3
59884.1
59915
59953.2
60001.9
60065.4
60149.5
60262.6
60416.4
60628.2
60923.6
61340.7
61937.3
62802
64072.8
65967.4
68834.4
73241.4
80130.5
91106.8
109004
139103
192066
292156
504942
1.05748e+06
3.10213e+06
1.79872e+07
5593.06
16067
24917
31850.7
36950.9
40562.3
43057.2
44755.8
45904.5
46680.5
47206.5
47565.4
47812.7
47985.2
48107.4
48195.6
48260.9
48310.9
48350.9
48384.8
48415.7
48446
48478.1
48514.3
48557.4
48610.6
48678.2
48765.7
48880.7
49034.1
49240.9
49522.8
49911.2
50452.3
51214.7
52301.4
53868.9
56158.4
59546.3
64630.1
72378.7
84410.2
103543
134996
189310
290588
504246
1.05728e+06
3.1021e+06
1.79872e+07
4187.72
12114.4
19001.5
24614.4
28929.3
32125.6
34433.3
36072.2
37225.1
38032.9
38599
38997.2
39279.3
39481.1
39627.3
39735.1
39816.5
39879.8
39931.4
39975.7
40016.5
40056.9
40099.8
40148.3
40205.8
40276.5
40365.9
40480.8
40630.9
40829.2
41094.2
41451.4
41937.9
42606.8
43535.4
44837.8
46684
49330.1
53168
58808.2
67224.6
80024.1
99993.9
132295
187396
289334
503505
1.05693e+06
3.10202e+06
1.79872e+07
3222.56
9366.72
14821.2
19400.8
23053
25862.2
27968.3
29519.5
30649.4
31467.2
32058.1
32485.5
32796.2
33023.8
33192.3
33319.1
33416.7
33494
33558
33613.7
33665.6
33717.3
33772.5
33834.9
33908.7
33999.1
34112.6
34257.7
34445.8
34692.2
35018.2
35453.2
36038.7
36833.4
37921.3
39424.1
41519.8
44472
48678.6
54750.7
63652.9
76961.3
97422.3
130140
185526
287607
501887
1.05565e+06
3.10147e+06
1.79872e+07
2539.38
7402.95
11792.2
15561.9
18666.9
21130.2
23036.8
24486.3
25574.9
26386.2
26988.6
27435.8
27768.7
28018
28206.5
28351.2
28464.5
28555.9
28632.7
28700.6
28764.4
28828.5
28897.1
28974.6
29066.2
29177.9
29317.3
29494.4
29722.1
30018.1
30406
30918.3
31600.1
32514.2
33749
35430.5
37739.9
40942.6
45433.7
51817.7
61044.6
74625.2
95252.2
127933
182945
284170
497096
1.0496e+06
3.09625e+06
1.79872e+07
2043.86
5967.32
9553.93
12691.5
15343
17503.7
19222.7
20566
21602.5
22395.4
22998.9
23457.6
23806.7
24073.7
24279.5
24440.4
24568.7
24673.9
24763.6
24843.9
24920.2
24997.4
25080.2
25173.8
25284.1
25418.1
25584.4
25794.2
26062.2
26407.6
26856.2
27443
28215.5
29239.3
30605.2
32440.5
34926.2
38323.2
43016.8
49597.2
59034.4
72665.6
93144.1
125271
178902
276988
482930
1.02049e+06
3.04087e+06
1.79872e+07
1677.43
4898.59
7873.05
10515.4
12792.3
14692.6
16240.9
17480.4
18459.7
19226.6
19823.5
20287
20647
20927.7
21148.1
21323.4
21465.5
21583.9
21686.2
21779
21868
21958.6
22056
22166.2
22295.7
22452.3
22645.7
22888.2
23195.7
23589.1
24095.6
24752.1
25607.7
26729.5
28209.2
30173.4
32800
36341
41160.6
47788.4
54446.8
67517.7
85755.1
113786
159307
239308
397203
770850
2.00887e+06
1.20426e+07
1402.38
4091.61
6594.42
8845.57
10814.1
12494.5
13891.7
15033.7
15955.3
16691.9
17277.1
17740.3
18106.8
18397.7
18630
18817.9
18972.4
19103.1
19217.6
19322.5
19424.1
19528
19640.1
19766.8
19915.3
20094.3
20314.3
20588.5
20933.9
21372.5
21932.9
22652.9
23582.9
24790.3
26366.5
28436.6
31174.2
34824.5
39741.1
46450.5
53150.1
66009.4
83938.7
111246
155223
231976
383203
746996
2.01428e+06
1.24056e+07
1193.66
3475.97
5612.9
7554.62
9274.2
10767.1
12032.3
13085.6
13951.6
14656.6
15226.8
15686.2
16055.8
16353.9
16595.8
16794.2
16959.9
17101.8
17227.6
17344.1
17457.8
17574.6
17701
17843.8
18010.8
18211.3
18456.6
18760.7
19141.5
19621.7
20231
21007.7
22002.6
23283.1
24939.5
27094.6
29917.9
33647.5
38626.6
45365.3
52081.7
64718.8
82345.6
109023
151791
226401
373577
730619
1.98883e+06
1.23851e+07
1034.26
3003.49
4855.66
6552.61
8071.64
9406.43
10558.6
11533.6
12348.2
13022.2
13576.2
14029.4
14399.7
14702.7
14951.9
15159.2
15334.5
15486.4
15622.5
15749.8
15874.8
16003.9
16143.8
16301.8
16486.2
16706.8
16975.6
17307.2
17720.1
18237.8
18890.3
19716.5
20766.9
22108.4
23830
26051.8
28939
32723.2
37737.4
44476.3
51185.6
63612
80954.1
107065
148638
233613
388242
766359
2.12091e+06
1.69428e+07
912.364
2640.55
4271.37
5775.52
7133.99
8339.34
9394.75
10301.9
11070.7
11715.9
12253.7
12699.7
13068.9
13375
13629.9
13844.4
14027.8
14188.4
14333.8
14470.9
14606.2
14746.5
14898.7
15070.6
15270.9
15509.8
15799.8
16156
16597.4
17147.9
17837.8
18705.9
19802.6
21194
22967.3
25240.1
28173.2
31992
37020.6
43739.8
50424
62652.8
79733.3
105368
146081
229144
379498
745784
2.07413e+06
1.69162e+07
819.64
2363.36
3823.46
5177.28
6408.9
7511.02
8484.48
9334.3
10063.8
10683.5
11206.2
11644.8
12012.1
12319.9
12579
12799.2
12989.4
13157.5
13310.8
13456.3
13600.8
13751
13914.2
14098.4
14312.7
14567.7
14876.2
15253.7
15719.6
16297.9
17019.1
17921.9
19056.3
20487.3
22300.5
24610.9
27575.3
31413.3
36440.4
43125.2
49769.9
61807.3
78636.5
103848
143865
225578
373916
737707
2.06683e+06
1.69155e+07
750.181
2154.98
3485.71
4724.6
5858.22
6879.7
7788.4
8589.52
9286.26
9884.43
10394
10825.8
11190.8
11499.5
11761.7
11986.4
12181.9
12356.1
12516.1
12668.7
12820.9
12979.5
13152
13346.7
13572.8
13841.3
14165.3
14560.6
15046.6
15647.7
16394.3
17324.9
18488.9
19950.4
21793.3
24130.3
27114.5
30960
35974.2
42613.8
49208.4
61047.6
77608.2
102366
141624
221700
367195
723737
2.0244e+06
1.67944e+07
699.805
2003.4
3239.39
4393.57
5454.35
6415.35
7275.28
8037.27
8707.53
9288.83
9787.96
10214.2
10577
10886.1
11150.3
11378.4
11578.1
11757
11922.2
12080.5
12238.8
12404.1
12584.1
12787.2
13022.7
13302
13638.3
14047.5
14549.4
15168.2
15934.2
16886
18072.2
19556
21420.2
23774.9
26770.3
30615.4
35610.2
42199
48741.3
60365.3
76622
100827
139060
216536
356804
696569
2.07524e+06
1.19258e+07
665.607
1900.24
3071.44
4167.39
5177.8
6096.67
6922.43
7657.25
8306.35
8875.28
9367.13
9789.26
10150.5
10459.6
10725.3
10955.7
11158.3
11340.6
11509.6
11672
11834.7
12005
12190.5
12399.6
12642.1
12929.2
13274.3
13693.7
14206.9
14838.3
15618.2
16584.8
17786.4
19285.5
21163.6
23529.4
26530.2
30371.1
35345.4
41885.9
48386.9
59784.3
75717.6
99278.9
136163
209764
341268
658581
1.98769e+06
1.18217e+07
645.471
1839.36
2972.17
4033.51
5013.85
5907.47
6712.64
7431.08
8067.25
8627.32
9114.95
9534.77
9894.99
10204.2
10470.7
10702.4
10906.8
11091.2
11262.5
11427.4
11592.9
11766.3
11955.1
12168
12414.8
12706.7
13057.3
13482.8
14003
14642.1
15430.4
16405.9
17616.7
19124.8
21011
23382.7
26385.7
30222.1
35180.4
41685.4
48171.3
59357.7
75009.5
97963.3
133426
202487
320373
583935
1.29128e+06
5.51122e+06
638.866
1819.29
2939.39
3989.23
4959.56
5844.75
6643.02
7355.96
7987.79
8544.47
9030.76
9449.92
9809.84
10119.1
10385.8
10618
10823
11008.1
11180.1
11345.9
11512.4
11686.7
11876.7
12090.9
12339.1
12632.7
12985.2
13412.8
13935.2
14577
15368.1
16346.5
17560.4
19071.4
20960.3
23333.9
26337.3
30171.8
35124.2
41615.9
48127
59154.4
74658
97274.6
131887
198488
306965
524129
966330
1.97534e+06
645.633
1839.59
2972.42
4033.74
5014.04
5907.63
6712.76
7431.15
8067.28
8627.31
9114.96
9534.79
9895.02
10204.2
10470.7
10702.4
10906.9
11091.2
11262.5
11427.4
11592.9
11766.3
11955.1
12168
12414.8
12706.7
13057.3
13482.8
14003
14642.1
15430.4
16405.9
17616.7
19124.8
21011
23382.7
26385.7
30222.1
35180.4
41685.4
48261.3
59223.4
74778.4
97513.2
132428
200990
315491
562973
1.22942e+06
4.58211e+06
665.927
1900.69
3071.91
4167.82
5178.16
6096.96
6922.64
7657.38
8306.39
8875.31
9367.17
9789.31
10150.5
10459.7
10725.4
10955.7
11158.4
11340.7
11509.6
11672
11834.7
12005
12190.5
12399.6
12642.1
12929.2
13274.3
13693.6
14206.8
14838.2
15618.2
16584.7
17786.3
19285.4
21163.6
23529.4
26530.2
30371.1
35345.3
41885.9
48550.9
59548.2
75330.5
98571.5
134724
207902
336352
643582
1.63912e+06
1.17231e+07
700.271
2004.05
3240.05
4394.17
5454.85
6415.73
7275.55
8037.42
8707.59
9288.89
9788.04
10214.2
10577.1
10886.1
11150.4
11378.4
11578.1
11757
11922.2
12080.5
12238.8
12404.1
12584.1
12787.1
13022.7
13302
13638.2
14047.4
14549.3
15168.1
15934.2
16885.9
18072.1
19556
21420.1
23774.9
26770.3
30615.4
35610.2
42198.9
48965.2
60059.2
76153.8
100044
137636
214992
353510
689229
1.7496e+06
1.19198e+07
750.771
2155.8
3486.52
4725.33
5858.81
6880.14
7788.69
8589.62
9286.35
9884.53
10394.1
10825.9
11190.9
11499.6
11761.7
11986.4
12182
12356.2
12516.1
12668.7
12820.9
12979.5
13152
13346.7
13572.8
13841.3
14165.2
14560.5
15046.6
15647.6
16394.2
17324.8
18488.8
19950.3
21793.3
24130.2
27114.4
30959.9
35974.2
42613.8
49480.8
60696
77109.2
101605
140393
220557
364971
717718
1.99363e+06
1.63315e+07
820.331
2364.3
3824.39
5178.08
6409.53
7511.47
8484.73
9334.45
10063.9
10683.6
11206.3
11644.9
12012.2
12320
12579.1
12799.3
12989.4
13157.5
13310.8
13456.3
13600.8
13751
13914.2
14098.4
14312.7
14567.6
14876.1
15253.6
15719.5
16297.8
17019
17921.8
19056.2
20487.2
22300.5
24610.8
27575.3
31413.3
36440.4
43125.2
50087.5
61417.8
78116.6
103110
142770
224687
372494
735350
2.06313e+06
1.69144e+07
913.131
2641.57
4272.36
5776.35
7134.62
8339.76
9395.01
10302.1
11070.9
11716.1
12253.8
12699.8
13069.1
13375.1
13630
13844.4
14027.8
14188.5
14333.8
14470.9
14606.2
14746.5
14898.7
15070.6
15270.8
15509.7
15799.7
16155.9
16597.3
17147.8
17837.7
18705.8
19802.5
21193.9
22967.2
25240
28173.2
31992
37020.5
43739.8
50792.3
62217.8
79173.1
104594
144952
228212
377974
743445
2.07206e+06
1.69161e+07
1035.08
3004.55
4856.66
6553.43
8072.23
9406.74
10558.8
11533.8
12348.3
13022.4
13576.3
14029.5
14399.8
14702.8
14952
15159.3
15334.5
15486.4
15622.6
15749.9
15874.8
16003.9
16143.8
16301.7
16486.1
16706.7
16975.5
17307.1
17720
18237.7
18890.2
19716.3
20766.8
22108.3
23829.9
26051.8
28939
32723.1
37737.4
44476.2
51616.8
63116
80324.7
106186
147296
232365
385566
758723
2.09667e+06
1.69197e+07
1194.5
3477.03
5613.88
7555.38
9274.72
10767.4
12032.5
13085.8
13951.7
14656.8
15227
15686.3
16055.9
16354
16595.9
16794.3
16959.9
17101.8
17227.6
17344.1
17457.8
17574.6
17701
17843.8
18010.8
18211.2
18456.5
18760.6
19141.4
19621.6
20230.9
21007.6
22002.5
23283
24939.4
27094.5
29917.8
33647.4
38626.6
45365.3
52593.2
64144.7
81626.5
108013
150198
223874
368216
716055
1.93326e+06
1.21638e+07
1403.21
4092.63
6595.32
8846.24
10814.5
12494.8
13891.9
15033.9
15955.4
16692.1
17277.2
17740.4
18106.9
18397.8
18630.1
18817.9
18972.5
19103.1
19217.6
19322.5
19424.1
19528
19640.1
19766.8
19915.3
20094.2
20314.2
20588.4
20933.8
21372.4
21932.8
22652.8
23582.8
24790.2
26366.4
28436.5
31174.1
34824.5
39741.1
46450.4
53766.2
65338.7
83115.1
110098
153447
229070
378369
739912
2.0077e+06
1.24058e+07
1678.23
4899.54
7873.85
10515.9
12792.6
14692.8
16241.1
17480.5
18459.9
19226.7
19823.6
20287.1
20647.1
20927.7
21148.2
21323.5
21465.6
21583.9
21686.2
21779
21868
21958.5
22056
22166.2
22295.6
22452.2
22645.6
22888.1
23195.7
23589
24095.5
24752
25607.6
26729.5
28209.1
30173.4
32799.9
36341
41160.6
47788.4
55223.2
66735.1
84819.5
112477
157170
235332
389111
755702
2.01693e+06
1.23779e+07
2044.6
5968.16
9554.61
12691.9
15343.3
17503.9
19222.8
20566.1
21602.6
22395.5
22999
23457.7
23806.8
24073.7
24279.6
24440.4
24568.7
24673.9
24763.6
24843.9
24920.2
24997.3
25080.2
25173.8
25284.1
25418
25584.3
25794.2
26062.2
26407.5
26856.2
27442.9
28215.5
29239.2
30605.1
32440.4
34926.1
38323.2
43016.8
49597.1
59034.3
72665.6
93144.1
125271
178902
276988
482930
1.02049e+06
3.04087e+06
1.79872e+07
2540.05
7403.66
11792.8
15562.2
18667.1
21130.4
23036.9
24486.4
25574.9
26386.2
26988.6
27435.8
27768.7
28018
28206.6
28351.2
28464.5
28555.9
28632.7
28700.6
28764.4
28828.5
28897
28974.6
29066.2
29177.8
29317.3
29494.3
29722.1
30018
30405.9
30918.3
31600.1
32514.1
33749
35430.4
37739.9
40942.5
45433.7
51817.6
61044.5
74625.2
95252.2
127933
182945
284170
497096
1.0496e+06
3.09625e+06
1.79872e+07
3223.13
9367.3
14821.5
19401
23053.2
25862.3
27968.3
29519.6
30649.4
31467.2
32058.1
32485.5
32796.2
33023.8
33192.3
33319.1
33416.7
33494
33558
33613.7
33665.6
33717.3
33772.5
33834.8
33908.7
33999.1
34112.6
34257.7
34445.7
34692.1
35018.1
35453.2
36038.7
36833.4
37921.3
39424.1
41519.7
44472
48678.6
54750.7
63652.9
76961.3
97422.3
130140
185526
287607
501887
1.05565e+06
3.10147e+06
1.79872e+07
4188.19
12114.8
19001.8
24614.5
28929.4
32125.6
34433.3
36072.2
37225.1
38032.8
38599
38997.2
39279.3
39481.1
39627.3
39735.1
39816.5
39879.8
39931.4
39975.7
40016.5
40056.9
40099.8
40148.3
40205.8
40276.5
40365.9
40480.8
40630.9
40829.2
41094.1
41451.4
41937.9
42606.7
43535.4
44837.8
46684
49330
53168
58808.2
67224.6
80024.1
99993.9
132295
187396
289334
503505
1.05693e+06
3.10202e+06
1.79872e+07
5593.4
16067.2
24917.1
31850.7
36950.9
40562.3
43057.1
44755.8
45904.5
46680.5
47206.4
47565.4
47812.7
47985.2
48107.4
48195.6
48260.9
48310.9
48350.9
48384.8
48415.7
48446
48478.1
48514.3
48557.4
48610.6
48678.2
48765.6
48880.7
49034.1
49240.9
49522.8
49911.2
50452.3
51214.7
52301.3
53868.9
56158.4
59546.3
64630.1
72378.7
84410.2
103543
134996
189310
290588
504246
1.05728e+06
3.1021e+06
1.79872e+07
7717.3
21944.8
33542.2
42146.7
48148.9
52176
54817.1
56529.8
57637.2
58355.5
58824.8
59134.7
59342.1
59483
59580.4
59649.3
59699.3
59736.9
59766.6
59791.3
59813.6
59835.3
59858.3
59884.1
59915
59953.2
60001.9
60065.4
60149.5
60262.6
60416.4
60628.2
60923.6
61340.7
61937.3
62802
64072.8
65967.4
68834.4
73241.4
80130.5
91106.8
109004
139103
192066
292156
504942
1.05748e+06
3.10213e+06
1.79872e+07
11081
31032.2
46484.4
57216
64210.5
68604.3
71313.6
72974
73994.4
74626.9
75023.9
75277
75441.1
75549.7
75623
75673.7
75709.8
75736.6
75757.3
75774.4
75789.6
75804.4
75819.9
75837.4
75858.3
75884.2
75917.5
75961
76019.1
76097.7
76205.5
76355.6
76567.2
76870.1
77309.7
77958.1
78929.7
80410.5
82707.4
86335.8
92179.6
101790
117975
146055
196847
294899
506124
1.0578e+06
3.10217e+06
1.79872e+07
16744.1
45804.3
66725.4
80061.5
88043
92670.4
95322.2
96844.6
97727.7
98248.2
98561.1
98753.1
98873.8
98951.4
99002.5
99037.2
99061.5
99079.1
99092.6
99103.7
99113.4
99122.8
99132.7
99143.8
99157
99173.5
99194.7
99222.6
99260
99310.8
99381.2
99480
99620.7
99824.7
100125
100576
101265
102340
104052
106840
111487
119424
133348
158531
205906
300417
508647
1.0585e+06
3.10225e+06
1.79872e+07
27065.6
71357.8
99944.5
116246
125011
129618
132038
133326
134026
134416
134640
134773
134853
134903
134936
134957
134972
134983
134991
134997
135003
135009
135014
135021
135029
135038
135051
135067
135089
135119
135161
135221
135306
135431
135617
135901
136344
137052
138210
140159
143535
149562
160675
181883
224021
312384
514655
1.06034e+06
3.10247e+06
1.79872e+07
47890.7
118577
157738
176956
185964
190160
192147
193115
193604
193861
194002
194081
194128
194157
194175
194187
194195
194200
194205
194208
194211
194214
194217
194221
194225
194230
194237
194246
194258
194274
194296
194327
194373
194441
194542
194700
194950
195357
196043
197238
199394
203438
211347
227494
262027
340001
530297
1.06583e+06
3.10319e+06
1.79872e+07
96079.1
214045
266498
287519
295773
299080
300462
301070
301354
301494
301566
301606
301629
301642
301651
301656
301660
301663
301665
301666
301668
301669
301671
301673
301675
301677
301681
301685
301690
301698
301708
301723
301744
301774
301821
301894
302012
302207
302544
303150
304289
306543
311252
321678
346217
407822
574724
1.08476e+06
3.10621e+06
1.79872e+07
228559
430975
496261
516075
522229
524266
524997
525284
525407
525464
525492
525507
525515
525520
525523
525525
525527
525528
525529
525529
525530
525531
525532
525533
525534
525535
525537
525539
525541
525544
525548
525554
525562
525573
525590
525617
525660
525731
525857
526088
526539
527478
529579
534677
548190
587444
712736
1.16001e+06
3.12318e+06
1.79872e+07
679328
1.0171e+06
1.08473e+06
1.09848e+06
1.10156e+06
1.10235e+06
1.10259e+06
1.10267e+06
1.1027e+06
1.10272e+06
1.10272e+06
1.10273e+06
1.10273e+06
1.10273e+06
1.10273e+06
1.10273e+06
1.10273e+06
1.10273e+06
1.10273e+06
1.10273e+06
1.10273e+06
1.10274e+06
1.10274e+06
1.10274e+06
1.10274e+06
1.10274e+06
1.10274e+06
1.10274e+06
1.10274e+06
1.10274e+06
1.10275e+06
1.10275e+06
1.10275e+06
1.10275e+06
1.10276e+06
1.10277e+06
1.10278e+06
1.1028e+06
1.10283e+06
1.10288e+06
1.103e+06
1.10324e+06
1.10381e+06
1.10533e+06
1.10992e+06
1.12605e+06
1.19193e+06
1.50336e+06
3.24975e+06
1.79872e+07
2.70001e+06
3.18572e+06
3.23008e+06
3.23475e+06
3.23538e+06
3.23549e+06
3.23552e+06
3.23553e+06
3.23554e+06
3.23554e+06
3.23554e+06
3.23554e+06
3.23554e+06
3.23554e+06
3.23554e+06
3.23554e+06
3.23554e+06
3.23554e+06
3.23555e+06
3.23555e+06
3.23555e+06
3.23555e+06
3.23555e+06
3.23555e+06
3.23555e+06
3.23555e+06
3.23555e+06
3.23556e+06
3.23556e+06
3.23556e+06
3.23556e+06
3.23557e+06
3.23557e+06
3.23557e+06
3.23558e+06
3.23558e+06
3.23558e+06
3.23559e+06
3.2356e+06
3.23561e+06
3.23562e+06
3.23565e+06
3.23572e+06
3.2359e+06
3.23649e+06
3.23897e+06
3.25311e+06
3.36216e+06
4.4313e+06
1.79872e+07
1.87595e+07
1.87595e+07
1.87595e+07
1.87595e+07
1.87595e+07
1.87595e+07
1.87595e+07
1.87595e+07
1.87595e+07
1.87595e+07
1.87595e+07
1.87595e+07
1.87595e+07
1.87595e+07
1.87595e+07
1.87595e+07
1.87595e+07
1.87595e+07
1.87595e+07
1.87595e+07
1.87595e+07
1.87595e+07
1.87595e+07
1.87595e+07
1.87595e+07
1.87595e+07
1.87595e+07
1.87595e+07
1.87595e+07
1.87595e+07
1.87595e+07
1.87595e+07
1.87595e+07
1.87595e+07
1.87595e+07
1.87595e+07
1.87595e+07
1.87595e+07
1.87595e+07
1.87595e+07
1.87595e+07
1.87595e+07
1.87595e+07
1.87595e+07
1.87595e+07
1.87595e+07
1.87595e+07
1.87595e+07
1.87595e+07
1.87595e+07
6.64505e+07
6.76664e+07
6.76659e+07
6.76588e+07
6.7657e+07
6.76041e+07
6.76672e+07
6.76665e+07
6.76661e+07
6.7666e+07
6.7666e+07
6.7666e+07
6.7666e+07
6.7666e+07
6.7666e+07
6.7666e+07
6.7666e+07
6.7666e+07
6.76659e+07
6.76635e+07
3.10455e+06
3.31601e+06
3.32432e+06
3.32178e+06
3.31273e+06
3.30403e+06
3.31813e+06
3.32354e+06
3.3245e+06
3.32456e+06
3.32456e+06
3.32456e+06
3.32456e+06
3.32456e+06
3.32456e+06
3.32456e+06
3.32455e+06
3.32449e+06
3.3223e+06
3.25299e+06
1.1573e+07
1.19501e+07
1.19517e+07
1.19514e+07
1.19542e+07
1.19696e+07
1.19611e+07
1.19519e+07
1.19517e+07
1.19517e+07
1.19517e+07
1.19517e+07
1.19517e+07
1.19517e+07
1.19517e+07
1.19517e+07
1.19517e+07
1.19517e+07
1.19512e+07
1.19092e+07
1.87595e+07
1.87595e+07
1.87595e+07
1.87595e+07
1.87595e+07
1.87595e+07
1.87595e+07
1.87595e+07
1.87595e+07
1.87595e+07
1.87595e+07
1.87595e+07
1.87595e+07
1.87595e+07
1.87595e+07
1.87595e+07
1.87595e+07
1.87595e+07
1.87595e+07
1.87595e+07
1.87595e+07
1.87595e+07
1.87595e+07
1.87595e+07
1.87595e+07
1.87595e+07
1.87595e+07
1.87595e+07
1.87595e+07
1.87595e+07
1.87595e+07
1.87595e+07
1.87595e+07
1.87595e+07
1.87595e+07
1.87595e+07
1.87595e+07
1.87595e+07
1.87595e+07
1.87595e+07
1.87595e+07
1.87595e+07
1.87595e+07
1.87595e+07
1.87595e+07
1.87595e+07
1.87595e+07
1.87595e+07
1.87595e+07
1.87595e+07
1.87595e+07
1.87595e+07
1.87595e+07
1.87595e+07
1.87595e+07
1.87595e+07
1.87595e+07
1.87595e+07
1.87595e+07
1.87595e+07
1.87595e+07
1.87595e+07
1.87595e+07
1.87595e+07
1.87595e+07
1.87595e+07
1.87595e+07
1.87595e+07
1.87595e+07
1.87595e+07
1.87595e+07
1.87595e+07
1.87595e+07
1.87595e+07
1.87595e+07
1.87595e+07
1.87595e+07
1.87595e+07
1.87595e+07
1.87595e+07
1.87595e+07
1.87595e+07
1.87595e+07
1.87595e+07
1.87595e+07
1.87595e+07
1.87595e+07
1.87595e+07
1.87595e+07
1.87595e+07
1.87595e+07
1.87595e+07
1.87595e+07
1.87595e+07
1.87595e+07
1.87595e+07
1.87595e+07
1.87595e+07
1.87595e+07
1.87595e+07
1.79872e+07
4.4313e+06
3.36207e+06
3.25301e+06
3.23887e+06
3.23639e+06
3.23581e+06
3.23563e+06
3.23557e+06
3.23555e+06
3.23554e+06
3.23553e+06
3.23553e+06
3.23553e+06
3.23553e+06
3.23553e+06
3.23553e+06
3.23553e+06
3.23553e+06
3.23553e+06
3.23553e+06
3.23553e+06
3.23553e+06
3.23553e+06
3.23554e+06
3.23554e+06
3.23554e+06
3.23554e+06
3.23554e+06
3.23554e+06
3.23554e+06
3.23554e+06
3.23554e+06
3.23554e+06
3.23554e+06
3.23554e+06
3.23554e+06
3.23554e+06
3.23554e+06
3.23554e+06
3.23554e+06
3.23554e+06
3.23554e+06
3.23554e+06
3.23554e+06
3.23554e+06
3.23554e+06
3.23554e+06
3.23554e+06
3.23554e+06
3.23554e+06
3.23554e+06
3.23554e+06
3.23554e+06
3.23554e+06
3.23554e+06
3.23554e+06
3.23554e+06
3.23554e+06
3.23554e+06
3.23554e+06
3.23554e+06
3.23554e+06
3.23554e+06
3.23554e+06
3.23554e+06
3.23554e+06
3.23554e+06
3.23554e+06
3.23554e+06
3.23554e+06
3.23554e+06
3.23554e+06
3.23554e+06
3.23554e+06
3.23554e+06
3.23554e+06
3.23554e+06
3.23554e+06
3.23554e+06
3.23554e+06
3.23554e+06
3.23554e+06
3.23554e+06
3.23554e+06
3.23554e+06
3.23554e+06
3.23554e+06
3.23554e+06
3.23554e+06
3.23554e+06
3.23554e+06
3.23554e+06
3.23554e+06
3.23554e+06
3.23554e+06
3.23554e+06
3.23554e+06
3.23554e+06
3.23554e+06
1.79872e+07
3.24984e+06
1.50336e+06
1.19189e+06
1.126e+06
1.10986e+06
1.10527e+06
1.10375e+06
1.10318e+06
1.10295e+06
1.10284e+06
1.10278e+06
1.10276e+06
1.10274e+06
1.10273e+06
1.10273e+06
1.10273e+06
1.10273e+06
1.10272e+06
1.10272e+06
1.10272e+06
1.10273e+06
1.10273e+06
1.10273e+06
1.10273e+06
1.10273e+06
1.10273e+06
1.10273e+06
1.10273e+06
1.10273e+06
1.10273e+06
1.10273e+06
1.10273e+06
1.10273e+06
1.10273e+06
1.10273e+06
1.10273e+06
1.10273e+06
1.10273e+06
1.10273e+06
1.10273e+06
1.10273e+06
1.10273e+06
1.10273e+06
1.10273e+06
1.10273e+06
1.10273e+06
1.10273e+06
1.10273e+06
1.10273e+06
1.10273e+06
1.10273e+06
1.10273e+06
1.10273e+06
1.10273e+06
1.10273e+06
1.10273e+06
1.10273e+06
1.10273e+06
1.10273e+06
1.10273e+06
1.10273e+06
1.10273e+06
1.10273e+06
1.10273e+06
1.10273e+06
1.10273e+06
1.10273e+06
1.10273e+06
1.10273e+06
1.10273e+06
1.10273e+06
1.10273e+06
1.10273e+06
1.10273e+06
1.10273e+06
1.10273e+06
1.10273e+06
1.10273e+06
1.10273e+06
1.10273e+06
1.10273e+06
1.10273e+06
1.10273e+06
1.10273e+06
1.10273e+06
1.10273e+06
1.10273e+06
1.10273e+06
1.10273e+06
1.10273e+06
1.10273e+06
1.10273e+06
1.10273e+06
1.10273e+06
1.10273e+06
1.10273e+06
1.10273e+06
1.10273e+06
1.10273e+06
1.79872e+07
3.12329e+06
1.16005e+06
712737
587419
548151
534632
529532
527431
526494
526045
525817
525694
525626
525586
525562
525548
525539
525533
525530
525528
525526
525526
525525
525525
525525
525525
525525
525525
525525
525525
525526
525526
525526
525526
525526
525526
525526
525526
525526
525527
525527
525527
525527
525527
525527
525527
525527
525527
525527
525527
525527
525527
525527
525527
525527
525527
525527
525527
525527
525527
525527
525527
525527
525527
525527
525527
525527
525527
525527
525527
525527
525527
525527
525527
525527
525527
525527
525527
525527
525527
525527
525527
525527
525527
525527
525527
525527
525527
525527
525527
525527
525527
525527
525527
525527
525527
525527
525527
525527
1.79872e+07
3.10632e+06
1.08482e+06
574755
407825
346200
321648
311216
306504
304250
303112
302508
302173
301981
301866
301796
301752
301723
301705
301692
301684
301678
301674
301672
301670
301668
301667
301667
301666
301666
301665
301665
301665
301665
301665
301665
301665
301665
301665
301665
301665
301665
301665
301665
301665
301665
301665
301665
301665
301665
301665
301665
301665
301665
301665
301665
301665
301665
301665
301665
301665
301665
301665
301665
301665
301665
301665
301665
301665
301665
301665
301665
301665
301665
301665
301665
301665
301665
301665
301665
301665
301665
301665
301665
301665
301665
301665
301665
301665
301665
301665
301665
301665
301665
301665
301665
301665
301665
301665
301665
1.79872e+07
3.10331e+06
1.0659e+06
530347
340028
262034
227485
211326
203411
199364
197207
196014
195329
194924
194677
194522
194423
194358
194315
194285
194265
194251
194240
194233
194228
194223
194220
194218
194216
194215
194214
194213
194212
194211
194211
194210
194210
194210
194210
194209
194209
194209
194209
194209
194209
194209
194209
194209
194209
194209
194209
194209
194209
194209
194209
194209
194209
194208
194208
194208
194208
194208
194208
194208
194208
194208
194208
194208
194208
194208
194208
194208
194208
194208
194208
194208
194208
194208
194208
194208
194208
194208
194208
194208
194208
194208
194208
194208
194208
194208
194208
194208
194208
194208
194208
194208
194208
194208
194208
194208
1.79872e+07
3.10259e+06
1.06042e+06
514719
312431
224048
181894
160672
149551
143518
140140
138190
137033
136328
135888
135606
135422
135300
135217
135160
135120
135091
135071
135055
135044
135035
135028
135023
135019
135016
135013
135011
135009
135008
135006
135005
135005
135004
135003
135003
135003
135002
135002
135002
135001
135001
135001
135001
135001
135001
135001
135001
135001
135001
135001
135001
135000
135000
135000
135000
135000
135000
135000
135000
135000
135000
135000
135000
135000
135000
135000
135000
135000
135000
135000
135000
135000
135000
135000
135000
135000
135000
135000
135000
135000
135000
135000
135000
135000
135000
135000
135000
135000
135000
135000
135000
135000
135000
135000
135000
1.79872e+07
3.10238e+06
1.05859e+06
508721
300478
205951
158560
133364
119430
111486
106836
104047
102336
101263
100577
100129
99831.3
99630.1
99491.8
99395.1
99326.3
99276.7
99240.3
99213.1
99192.4
99176.6
99164.2
99154.4
99146.6
99140.3
99135.2
99131
99127.6
99124.8
99122.5
99120.6
99119
99117.6
99116.5
99115.6
99114.8
99114.2
99113.6
99113.1
99112.7
99112.4
99112.2
99112
99111.8
99111.7
99111.6
99111.5
99111.4
99111.3
99111.2
99111.1
99111
99110.8
99110.7
99110.6
99110.5
99110.4
99110.3
99110.2
99110.2
99110.1
99110.1
99110
99110
99109.9
99109.9
99109.9
99109.8
99109.8
99109.8
99109.8
99109.8
99109.8
99109.8
99109.8
99109.8
99109.8
99109.8
99109.8
99109.8
99109.8
99109.8
99109.8
99109.8
99109.8
99109.8
99109.8
99109.9
99109.9
99109.9
99109.9
99109.9
99109.9
99109.9
99109.9