/*--------------------------------*- C++ -*----------------------------------*\
| =========                 |                                                 |
| \\      /  F ield         | foam-extend: Open Source CFD                    |
|  \\    /   O peration     | Version:     4.0                                |
|   \\  /    A nd           | Web:         http://www.foam-extend.org         |
|    \\/     M anipulation  |                                                 |
\*---------------------------------------------------------------------------*/
FoamFile
{
    version     2.0;
    format      ascii;
    class       surfaceScalarField;
    location    "0.002";
    object      phi;
}
// * * * * * * * * * * * * * * * * * * * * * * * * * * * * * * * * * * * * * //

dimensions      [0 3 -1 0 0 0 0];

internalField   nonuniform List<scalar> 
57362
(
1.1404e-10
6.75596e-15
1.1402e-10
2.04454e-14
1.13986e-10
3.43835e-14
1.13937e-10
4.88674e-14
1.13873e-10
6.41421e-14
1.13792e-10
8.03514e-14
1.13694e-10
9.77656e-14
1.13578e-10
1.16591e-13
1.13441e-10
1.37259e-13
1.1328e-10
1.60052e-13
1.13095e-10
1.85216e-13
1.12882e-10
2.13041e-13
1.12638e-10
2.44131e-13
1.12359e-10
2.78789e-13
1.12042e-10
3.17536e-13
1.11681e-10
3.6084e-13
1.11271e-10
4.09438e-13
1.10808e-10
4.6377e-13
1.10283e-10
5.24689e-13
1.0969e-10
5.92718e-13
1.09021e-10
6.69249e-13
1.08266e-10
7.5419e-13
1.07417e-10
8.49785e-13
1.06461e-10
9.55383e-13
1.05388e-10
1.07411e-12
1.04182e-10
1.20426e-12
1.02833e-10
1.35079e-12
1.01322e-10
1.50965e-12
9.96345e-11
1.68849e-12
9.77527e-11
1.87992e-12
9.56593e-11
2.09523e-12
9.33348e-11
2.32202e-12
9.07603e-11
2.57679e-12
8.79172e-11
2.84014e-12
8.47853e-11
3.13448e-12
8.13495e-11
3.43256e-12
7.75901e-11
3.76212e-12
7.34975e-11
4.08906e-12
6.90568e-11
4.44339e-12
6.4266e-11
4.78739e-12
5.91194e-11
5.14885e-12
5.36253e-11
5.49096e-12
4.77921e-11
5.83503e-12
4.16402e-11
6.14929e-12
3.51949e-11
6.4466e-12
2.84904e-11
6.70247e-12
2.15682e-11
6.92273e-12
1.44761e-11
7.09079e-12
7.26771e-12
7.20834e-12
7.26701e-12
1.14042e-10
1.34426e-14
1.14022e-10
4.05814e-14
1.13988e-10
6.82447e-14
1.1394e-10
9.69722e-14
1.13877e-10
1.27274e-13
1.13797e-10
1.59477e-13
1.13701e-10
1.94041e-13
1.13586e-10
2.31563e-13
1.13451e-10
2.72604e-13
1.13293e-10
3.17754e-13
1.13111e-10
3.67676e-13
1.12901e-10
4.23036e-13
1.1266e-10
4.848e-13
1.12385e-10
5.5357e-13
1.12072e-10
6.30543e-13
1.11716e-10
7.16665e-13
1.11313e-10
8.13209e-13
1.10855e-10
9.21159e-13
1.10338e-10
1.04238e-12
1.09752e-10
1.17765e-12
1.09092e-10
1.3298e-12
1.08347e-10
1.49879e-12
1.07509e-10
1.689e-12
1.06564e-10
1.89915e-12
1.05503e-10
2.13568e-12
1.04312e-10
2.39486e-12
1.02977e-10
2.68693e-12
1.01482e-10
3.00358e-12
9.98117e-11
3.36053e-12
9.79475e-11
3.74228e-12
9.58725e-11
4.17285e-12
9.35666e-11
4.62562e-12
9.10108e-11
5.13601e-12
8.81859e-11
5.66229e-12
8.50714e-11
6.25322e-12
8.16513e-11
6.84969e-12
7.7905e-11
7.51323e-12
7.38228e-11
8.16832e-12
6.93878e-11
8.88357e-12
6.45984e-11
9.57437e-12
5.9447e-11
1.03053e-11
5.3942e-11
1.09943e-11
4.80908e-11
1.1691e-11
4.19138e-11
1.23256e-11
3.54363e-11
1.29283e-11
2.86928e-11
1.34463e-11
2.1726e-11
1.38932e-11
1.45841e-11
1.42339e-11
7.32261e-12
1.44726e-11
1.45917e-11
1.1408e-10
1.99275e-14
1.1406e-10
6.00799e-14
1.14027e-10
1.0117e-13
1.13981e-10
1.43746e-13
1.13919e-10
1.88546e-13
1.13842e-10
2.36239e-13
1.13749e-10
2.87516e-13
1.13637e-10
3.43134e-13
1.13506e-10
4.03995e-13
1.13353e-10
4.70865e-13
1.13176e-10
5.44866e-13
1.12972e-10
6.26998e-13
1.12738e-10
7.18494e-13
1.12471e-10
8.20551e-13
1.12167e-10
9.34768e-13
1.11821e-10
1.06256e-12
1.11428e-10
1.20586e-12
1.10983e-10
1.36609e-12
1.1048e-10
1.54613e-12
1.0991e-10
1.74716e-12
1.09267e-10
1.97314e-12
1.0854e-10
2.22445e-12
1.07723e-10
2.50733e-12
1.06801e-10
2.82001e-12
1.05765e-10
3.17229e-12
1.046e-10
3.55849e-12
1.03294e-10
3.99386e-12
1.0183e-10
4.46634e-12
1.00192e-10
4.99941e-12
9.83618e-11
5.57008e-12
9.63219e-11
6.21423e-12
9.40519e-11
6.8926e-12
9.15318e-11
7.65773e-12
8.87421e-11
8.44826e-12
8.56605e-11
9.33645e-12
8.22705e-11
1.02353e-11
7.85499e-11
1.12352e-11
7.44875e-11
1.22258e-11
7.00647e-11
1.33072e-11
6.5278e-11
1.43559e-11
6.01185e-11
1.5465e-11
5.45923e-11
1.65152e-11
4.87061e-11
1.75765e-11
4.24791e-11
1.85475e-11
3.59366e-11
1.94692e-11
2.91138e-11
2.02644e-11
2.20544e-11
2.09502e-11
1.48095e-11
2.14747e-11
7.43728e-12
2.18418e-11
2.20254e-11
1.14118e-10
2.61278e-14
1.141e-10
7.87189e-14
1.14068e-10
1.32557e-13
1.14024e-10
1.88382e-13
1.13965e-10
2.47063e-13
1.13892e-10
3.09542e-13
1.13803e-10
3.76749e-13
1.13696e-10
4.49716e-13
1.13571e-10
5.29442e-13
1.13424e-10
6.17174e-13
1.13255e-10
7.14225e-13
1.1306e-10
8.21913e-13
1.12837e-10
9.41993e-13
1.12581e-10
1.07597e-12
1.1229e-10
1.22591e-12
1.11959e-10
1.3936e-12
1.11583e-10
1.58185e-12
1.11157e-10
1.79238e-12
1.10674e-10
2.02913e-12
1.10127e-10
2.29344e-12
1.0951e-10
2.59078e-12
1.08813e-10
2.92166e-12
1.08026e-10
3.29436e-12
1.07139e-10
3.70654e-12
1.06141e-10
4.17139e-12
1.05017e-10
4.68136e-12
1.03756e-10
5.25712e-12
1.02338e-10
5.88206e-12
1.00752e-10
6.58887e-12
9.89744e-11
7.34529e-12
9.69903e-11
8.20221e-12
9.47766e-11
9.10352e-12
9.23139e-11
1.01257e-11
8.958e-11
1.11788e-11
8.65517e-11
1.23714e-11
8.3211e-11
1.35724e-11
7.95314e-11
1.49227e-11
7.55024e-11
1.62517e-11
7.10983e-11
1.772e-11
6.63179e-11
1.91341e-11
6.11444e-11
2.06474e-11
5.55857e-11
2.20732e-11
4.96446e-11
2.35263e-11
4.334e-11
2.48533e-11
3.66977e-11
2.61195e-11
2.97527e-11
2.72121e-11
2.25528e-11
2.81572e-11
1.51508e-11
2.88807e-11
7.61099e-12
2.93878e-11
2.96415e-11
1.14158e-10
3.19629e-14
1.1414e-10
9.6213e-14
1.14111e-10
1.61923e-13
1.14069e-10
2.30185e-13
1.14014e-10
3.01953e-13
1.13945e-10
3.78324e-13
1.13862e-10
4.60475e-13
1.13762e-10
5.49663e-13
1.13644e-10
6.47137e-13
1.13506e-10
7.54518e-13
1.13348e-10
8.73224e-13
1.13164e-10
1.00501e-12
1.12954e-10
1.15198e-12
1.12714e-10
1.31603e-12
1.12441e-10
1.4997e-12
1.12129e-10
1.70513e-12
1.11775e-10
1.93584e-12
1.11373e-10
2.19408e-12
1.10918e-10
2.48457e-12
1.10402e-10
2.80899e-12
1.09819e-10
3.1744e-12
1.09158e-10
3.58115e-12
1.08413e-10
4.03974e-12
1.07572e-10
4.54744e-12
1.06623e-10
5.12039e-12
1.05553e-10
5.74982e-12
1.0435e-10
6.46136e-12
1.02995e-10
7.23461e-12
1.01475e-10
8.11054e-12
9.97676e-11
9.04938e-12
9.78561e-11
1.01152e-11
9.57174e-11
1.12381e-11
9.33298e-11
1.25148e-11
9.06707e-11
1.38328e-11
8.77139e-11
1.53294e-11
8.44397e-11
1.68405e-11
8.08184e-11
1.85444e-11
7.68363e-11
2.02268e-11
7.24649e-11
2.20908e-11
6.76975e-11
2.38937e-11
6.25157e-11
2.58272e-11
5.69214e-11
2.76592e-11
5.09154e-11
2.95288e-11
4.45136e-11
3.12466e-11
3.77412e-11
3.28872e-11
3.06341e-11
3.43109e-11
2.32428e-11
3.55429e-11
1.56255e-11
3.64904e-11
7.85282e-12
3.71541e-11
3.74873e-11
1.14231e-10
3.72471e-14
1.14215e-10
1.12253e-13
1.14188e-10
1.88947e-13
1.1415e-10
2.68601e-13
1.14099e-10
3.52374e-13
1.14036e-10
4.41513e-13
1.13959e-10
5.3744e-13
1.13867e-10
6.41526e-13
1.13759e-10
7.55455e-13
1.13633e-10
8.80832e-13
1.13486e-10
1.01957e-12
1.13318e-10
1.17366e-12
1.13124e-10
1.34542e-12
1.12903e-10
1.53728e-12
1.12651e-10
1.75219e-12
1.12363e-10
1.99272e-12
1.12036e-10
2.26291e-12
1.11664e-10
2.56557e-12
1.11243e-10
2.90609e-12
1.10765e-10
3.28683e-12
1.10224e-10
3.716e-12
1.09611e-10
4.19405e-12
1.08918e-10
4.73364e-12
1.08133e-10
5.33154e-12
1.07247e-10
6.00733e-12
1.06245e-10
6.75044e-12
1.05117e-10
7.59222e-12
1.03842e-10
8.50783e-12
1.02408e-10
9.54817e-12
1.00791e-10
1.06635e-11
9.89761e-11
1.19359e-11
9.69353e-11
1.3275e-11
9.46493e-11
1.48088e-11
9.20902e-11
1.63871e-11
8.92305e-11
1.81994e-11
8.60481e-11
2.00177e-11
8.25053e-11
2.20997e-11
7.85913e-11
2.41361e-11
7.4261e-11
2.64351e-11
6.9516e-11
2.86359e-11
6.43188e-11
3.10388e-11
5.86765e-11
3.33016e-11
5.25819e-11
3.56375e-11
4.60489e-11
3.77827e-11
3.91047e-11
3.98445e-11
3.17828e-11
4.16385e-11
2.41418e-11
4.31957e-11
1.62425e-11
4.43973e-11
8.1673e-12
4.52398e-11
4.56637e-11
1.14304e-10
4.19878e-14
1.14289e-10
1.26636e-13
1.14265e-10
2.13205e-13
1.14231e-10
3.03053e-13
1.14186e-10
3.97576e-13
1.14129e-10
4.98176e-13
1.1406e-10
6.06409e-13
1.13977e-10
7.24015e-13
1.1388e-10
8.52681e-13
1.13767e-10
9.94253e-13
1.13635e-10
1.15105e-12
1.13484e-10
1.32525e-12
1.1331e-10
1.51948e-12
1.1311e-10
1.73646e-12
1.12883e-10
1.97966e-12
1.12623e-10
2.25203e-12
1.12328e-10
2.55822e-12
1.11992e-10
2.90129e-12
1.11611e-10
3.28764e-12
1.11177e-10
3.72e-12
1.10686e-10
4.20768e-12
1.10128e-10
4.75163e-12
1.09496e-10
5.36616e-12
1.08778e-10
6.04804e-12
1.07966e-10
6.81978e-12
1.07045e-10
7.66978e-12
1.06004e-10
8.63428e-12
1.04824e-10
9.68537e-12
1.03491e-10
1.08824e-11
1.01982e-10
1.21685e-11
1.0028e-10
1.364e-11
9.8357e-11
1.51922e-11
9.61904e-11
1.69771e-11
9.37524e-11
1.88181e-11
9.10104e-11
2.09426e-11
8.79404e-11
2.30792e-11
8.44996e-11
2.55404e-11
8.06713e-11
2.79545e-11
7.64078e-11
3.06966e-11
7.1699e-11
3.33334e-11
6.65071e-11
3.62262e-11
6.08253e-11
3.89709e-11
5.46431e-11
4.18129e-11
4.79674e-11
4.44454e-11
4.08223e-11
4.69808e-11
3.32431e-11
4.92047e-11
2.52908e-11
5.11379e-11
1.70362e-11
5.26395e-11
8.57261e-12
5.36925e-11
5.42247e-11
1.14374e-10
4.61287e-14
1.14361e-10
1.39149e-13
1.1434e-10
2.34272e-13
1.1431e-10
3.33018e-13
1.14271e-10
4.36896e-13
1.14222e-10
5.47496e-13
1.14162e-10
6.66484e-13
1.1409e-10
7.9579e-13
1.14005e-10
9.3729e-13
1.13906e-10
1.09311e-12
1.13792e-10
1.26566e-12
1.1366e-10
1.45747e-12
1.13508e-10
1.67144e-12
1.13334e-10
1.91052e-12
1.13135e-10
2.17873e-12
1.12907e-10
2.47919e-12
1.12649e-10
2.81723e-12
1.12353e-10
3.1962e-12
1.12018e-10
3.6234e-12
1.11636e-10
4.10188e-12
1.11202e-10
4.6421e-12
1.10708e-10
5.24548e-12
1.10147e-10
5.92784e-12
1.09508e-10
6.68619e-12
1.08784e-10
7.54578e-12
1.07958e-10
8.49414e-12
1.07023e-10
9.57269e-12
1.05956e-10
1.075e-11
1.04748e-10
1.20954e-11
1.0337e-10
1.35426e-11
1.01811e-10
1.52072e-11
1.00034e-10
1.69631e-11
9.8023e-11
1.89994e-11
9.57398e-11
2.10938e-11
9.31539e-11
2.3544e-11
9.02352e-11
2.59894e-11
8.6929e-11
2.88657e-11
8.32268e-11
3.16487e-11
7.90459e-11
3.48992e-11
7.44013e-11
3.7973e-11
6.92095e-11
4.14402e-11
6.34779e-11
4.4703e-11
5.7184e-11
4.81281e-11
5.03253e-11
5.13099e-11
4.29331e-11
5.43929e-11
3.50316e-11
5.71162e-11
2.66984e-11
5.94891e-11
1.80057e-11
6.13448e-11
9.06811e-12
6.26463e-11
6.33073e-11
1.14475e-10
4.9553e-14
1.14465e-10
1.49541e-13
1.14447e-10
2.51816e-13
1.14423e-10
3.58009e-13
1.1439e-10
4.69706e-13
1.14349e-10
5.88656e-13
1.14298e-10
7.16731e-13
1.14238e-10
8.5582e-13
1.14167e-10
1.00808e-12
1.14085e-10
1.17583e-12
1.13989e-10
1.36167e-12
1.13878e-10
1.56831e-12
1.1375e-10
1.79897e-12
1.13604e-10
2.05683e-12
1.13436e-10
2.34625e-12
1.13245e-10
2.67071e-12
1.13026e-10
3.03594e-12
1.12776e-10
3.44581e-12
1.12492e-10
3.90819e-12
1.12166e-10
4.42667e-12
1.11796e-10
5.01255e-12
1.11373e-10
5.66791e-12
1.10892e-10
6.40991e-12
1.1034e-10
7.23612e-12
1.09713e-10
8.17399e-12
1.08994e-10
9.21104e-12
1.08175e-10
1.03927e-11
1.07235e-10
1.16861e-11
1.06165e-10
1.31678e-11
1.04936e-10
1.47666e-11
1.03533e-10
1.6612e-11
1.01924e-10
1.85649e-11
1.00085e-10
2.08409e-11
9.79806e-11
2.3189e-11
9.55712e-11
2.59551e-11
9.28268e-11
2.87223e-11
8.96851e-11
3.20073e-11
8.61283e-11
3.51918e-11
8.2074e-11
3.89504e-11
7.7513e-11
4.25181e-11
7.23708e-11
4.65753e-11
6.66227e-11
5.04329e-11
6.0239e-11
5.45006e-11
5.3204e-11
5.83253e-11
4.55386e-11
6.20438e-11
3.72698e-11
6.53652e-11
2.8474e-11
6.82688e-11
1.92403e-11
7.05597e-11
9.70085e-12
7.21689e-11
7.29905e-11
1.14572e-10
5.22806e-14
1.14564e-10
1.57736e-13
1.1455e-10
2.65617e-13
1.1453e-10
3.77668e-13
1.14505e-10
4.95513e-13
1.14472e-10
6.21011e-13
1.14433e-10
7.56235e-13
1.14385e-10
9.03114e-13
1.1433e-10
1.06392e-12
1.14264e-10
1.24114e-12
1.14188e-10
1.43755e-12
1.14101e-10
1.65599e-12
1.14e-10
1.90005e-12
1.13883e-10
2.17304e-12
1.1375e-10
2.47953e-12
1.13597e-10
2.82344e-12
1.13423e-10
3.21077e-12
1.13222e-10
3.64589e-12
1.12994e-10
4.13718e-12
1.12731e-10
4.68875e-12
1.12432e-10
5.31262e-12
1.12088e-10
6.0116e-12
1.11695e-10
6.80396e-12
1.11242e-10
7.68801e-12
1.10725e-10
8.69311e-12
1.10127e-10
9.80731e-12
1.09445e-10
1.10794e-11
1.08651e-10
1.24759e-11
1.07746e-10
1.40802e-11
1.0669e-10
1.58168e-11
1.05483e-10
1.78302e-11
1.04073e-10
1.99657e-11
1.02456e-10
2.24741e-11
1.00573e-10
2.50605e-11
9.83993e-11
2.81511e-11
9.58866e-11
3.12205e-11
9.29634e-11
3.49592e-11
8.96269e-11
3.85138e-11
8.57231e-11
4.28869e-11
8.13192e-11
4.69125e-11
7.62178e-11
5.17092e-11
7.04339e-11
5.62179e-11
6.39351e-11
6.10302e-11
5.66673e-11
6.56035e-11
4.86746e-11
7.00652e-11
3.99493e-11
7.41072e-11
3.05996e-11
7.76449e-11
2.07122e-11
8.04669e-11
1.04559e-11
8.24488e-11
8.3468e-11
1.14662e-10
5.42134e-14
1.14656e-10
1.63588e-13
1.14646e-10
2.75496e-13
1.14633e-10
3.9165e-13
1.14614e-10
5.13917e-13
1.14591e-10
6.44138e-13
1.14563e-10
7.84415e-13
1.14529e-10
9.36837e-13
1.14489e-10
1.10384e-12
1.14442e-10
1.28799e-12
1.14388e-10
1.49207e-12
1.14325e-10
1.71917e-12
1.14252e-10
1.97305e-12
1.14167e-10
2.25718e-12
1.14071e-10
2.57632e-12
1.13959e-10
2.93476e-12
1.13831e-10
3.3387e-12
1.13684e-10
3.79302e-12
1.13515e-10
4.30633e-12
1.1332e-10
4.88341e-12
1.13096e-10
5.5369e-12
1.12836e-10
6.27028e-12
1.12538e-10
7.10261e-12
1.12191e-10
8.03346e-12
1.11792e-10
9.09326e-12
1.11325e-10
1.02716e-11
1.10787e-10
1.16192e-11
1.10154e-10
1.31043e-11
1.09423e-10
1.48143e-11
1.08559e-10
1.66735e-11
1.07557e-10
1.88361e-11
1.06372e-10
2.11411e-11
1.04988e-10
2.38623e-11
1.03356e-10
2.66808e-11
1.01434e-10
3.00765e-11
9.91805e-11
3.34582e-11
9.65099e-11
3.7631e-11
9.34087e-11
4.15968e-11
8.97308e-11
4.65616e-11
8.54935e-11
5.11284e-11
8.05489e-11
5.66444e-11
7.48313e-11
6.19093e-11
6.82864e-11
6.7558e-11
6.08433e-11
7.30176e-11
5.25146e-11
7.83715e-11
4.33004e-11
8.3292e-11
3.32921e-11
8.76285e-11
2.26035e-11
9.11279e-11
1.14312e-11
9.35964e-11
9.48738e-11
1.1478e-10
5.53275e-14
1.14776e-10
1.6693e-13
1.1477e-10
2.81166e-13
1.14762e-10
3.99753e-13
1.14752e-10
5.24587e-13
1.14738e-10
6.57607e-13
1.14722e-10
8.00855e-13
1.14702e-10
9.56573e-13
1.14679e-10
1.12723e-12
1.14651e-10
1.31549e-12
1.14619e-10
1.5243e-12
1.14581e-10
1.75672e-12
1.14538e-10
2.01662e-12
1.14487e-10
2.30768e-12
1.14429e-10
2.63485e-12
1.14361e-10
3.00257e-12
1.14283e-10
3.41731e-12
1.14191e-10
3.88429e-12
1.14086e-10
4.41229e-12
1.13962e-10
5.0068e-12
1.13819e-10
5.68061e-12
1.1365e-10
6.43829e-12
1.13456e-10
7.29915e-12
1.13223e-10
8.26448e-12
1.12955e-10
9.36475e-12
1.12631e-10
1.05925e-11
1.12257e-10
1.19983e-11
1.11802e-10
1.35548e-11
1.11276e-10
1.53495e-11
1.10628e-10
1.73126e-11
1.09878e-10
1.96003e-11
1.08951e-10
2.20557e-11
1.0787e-10
2.49653e-11
1.06536e-10
2.79966e-11
1.0496e-10
3.1684e-11
1.03043e-10
3.53517e-11
1.00722e-10
3.9993e-11
9.79906e-11
4.43025e-11
9.45683e-11
5.00323e-11
9.07106e-11
5.49669e-11
8.58904e-11
6.15096e-11
8.01534e-11
6.76495e-11
7.35426e-11
7.42103e-11
6.5838e-11
8.07412e-11
5.71136e-11
8.71354e-11
4.72792e-11
9.31541e-11
3.64818e-11
9.84628e-11
2.483e-11
1.0281e-10
1.25789e-11
1.05881e-10
1.07483e-10
1.14887e-10
5.56833e-14
1.14886e-10
1.67824e-13
1.14885e-10
2.82583e-13
1.14883e-10
4.0181e-13
1.1488e-10
5.2731e-13
1.14877e-10
6.61107e-13
1.14872e-10
8.05218e-13
1.14867e-10
9.61912e-13
1.14861e-10
1.13369e-12
1.14853e-10
1.32321e-12
1.14844e-10
1.53358e-12
1.14832e-10
1.76783e-12
1.14819e-10
2.02989e-12
1.14803e-10
2.3236e-12
1.14784e-10
2.65388e-12
1.14761e-10
3.0255e-12
1.14734e-10
3.44487e-12
1.147e-10
3.91755e-12
1.1466e-10
4.45254e-12
1.1461e-10
5.05585e-12
1.14551e-10
5.74024e-12
1.14477e-10
6.51145e-12
1.14389e-10
7.38853e-12
1.14276e-10
8.3748e-12
1.14142e-10
9.50029e-12
1.1397e-10
1.07608e-11
1.13765e-10
1.22061e-11
1.135e-10
1.38143e-11
1.13182e-10
1.56712e-11
1.12772e-10
1.77152e-11
1.12275e-10
2.01021e-11
1.11636e-10
2.26834e-11
1.10855e-10
2.57527e-11
1.09859e-10
2.89764e-11
1.08624e-10
3.29255e-11
1.07081e-10
3.68754e-11
1.05127e-10
4.19522e-11
1.02756e-10
4.66487e-11
9.97011e-11
5.3087e-11
9.61149e-11
5.85263e-11
9.16853e-11
6.59299e-11
8.62343e-11
7.30626e-11
7.97048e-11
8.07148e-11
7.18981e-11
8.85058e-11
6.28076e-11
9.61914e-11
5.23637e-11
1.03555e-10
4.06487e-11
1.10141e-10
2.78017e-11
1.15618e-10
1.41255e-11
1.19522e-10
1.21575e-10
1.14984e-10
5.51285e-14
1.14986e-10
1.66146e-13
1.14988e-10
2.79766e-13
1.14992e-10
3.9779e-13
1.14998e-10
5.22072e-13
1.15004e-10
6.54609e-13
1.15012e-10
7.97368e-13
1.15021e-10
9.52688e-13
1.15032e-10
1.12301e-12
1.15044e-10
1.31097e-12
1.15058e-10
1.51963e-12
1.15074e-10
1.75216e-12
1.15091e-10
2.01245e-12
1.1511e-10
2.30434e-12
1.15132e-10
2.63275e-12
1.15155e-10
3.00258e-12
1.1518e-10
3.42025e-12
1.15205e-10
3.89157e-12
1.15233e-10
4.42544e-12
1.1526e-10
5.02846e-12
1.15288e-10
5.71304e-12
1.15312e-10
6.48627e-12
1.15337e-10
7.36633e-12
1.1535e-10
8.35912e-12
1.15361e-10
9.49271e-12
1.1535e-10
1.07683e-11
1.15332e-10
1.22308e-11
1.15271e-10
1.38691e-11
1.15194e-10
1.57591e-11
1.15039e-10
1.786e-11
1.14851e-10
2.03069e-11
1.14527e-10
2.29907e-11
1.14141e-10
2.61661e-11
1.13526e-10
2.95665e-11
1.12787e-10
3.37054e-11
1.11691e-10
3.79355e-11
1.10312e-10
4.33885e-11
1.08492e-10
4.8421e-11
1.05826e-10
5.58275e-11
1.03252e-10
6.1057e-11
9.909e-11
7.01495e-11
9.34784e-11
7.86865e-11
8.70672e-11
8.71769e-11
7.90755e-11
9.6533e-11
6.95812e-11
1.05738e-10
5.83332e-11
1.14849e-10
4.54944e-11
1.23031e-10
3.12245e-11
1.29933e-10
1.59016e-11
1.34889e-10
1.37517e-10
1.15103e-10
5.36626e-14
1.15107e-10
1.61917e-13
1.15114e-10
2.7271e-13
1.15124e-10
3.87762e-13
1.15137e-10
5.08943e-13
1.15154e-10
6.38151e-13
1.15174e-10
7.77429e-13
1.15198e-10
9.28997e-13
1.15225e-10
1.09525e-12
1.15257e-10
1.27877e-12
1.15295e-10
1.48255e-12
1.15337e-10
1.70983e-12
1.15385e-10
1.9643e-12
1.15439e-10
2.24991e-12
1.15501e-10
2.57145e-12
1.15569e-10
2.93378e-12
1.15647e-10
3.3433e-12
1.15732e-10
3.80598e-12
1.15827e-10
4.33042e-12
1.15931e-10
4.92385e-12
1.16047e-10
5.59799e-12
1.1617e-10
6.36115e-12
1.16308e-10
7.23056e-12
1.1645e-10
8.21443e-12
1.16606e-10
9.33858e-12
1.16761e-10
1.06092e-11
1.16928e-10
1.20667e-11
1.17082e-10
1.37097e-11
1.17241e-10
1.5605e-11
1.17361e-10
1.77302e-11
1.17472e-10
2.02034e-11
1.17499e-10
2.2949e-11
1.17483e-10
2.61925e-11
1.17309e-10
2.97212e-11
1.17014e-10
3.40125e-11
1.16447e-10
3.8476e-11
1.15572e-10
4.4278e-11
1.14308e-10
4.96522e-11
1.12134e-10
5.80082e-11
1.09814e-10
6.33518e-11
1.06589e-10
3.94961e-11
3.38788e-11
1.01882e-10
3.87863e-11
4.45496e-11
9.58164e-11
4.36869e-11
4.95174e-11
8.79197e-11
4.93021e-11
5.50659e-11
7.8136e-11
5.49587e-11
6.05063e-11
6.62443e-11
6.0764e-11
6.5908e-11
5.21928e-11
6.62914e-11
7.07287e-11
3.61105e-11
7.12619e-11
7.46942e-11
1.84801e-11
7.51465e-11
7.73222e-11
7.76017e-11
7.83478e-11
1.15204e-10
5.1455e-14
1.15211e-10
1.55286e-13
1.15222e-10
2.61493e-13
1.15238e-10
3.71811e-13
1.15259e-10
4.88014e-13
1.15285e-10
6.11937e-13
1.15317e-10
7.45643e-13
1.15355e-10
8.91083e-13
1.15399e-10
1.05076e-12
1.15451e-10
1.22699e-12
1.15511e-10
1.42276e-12
1.15579e-10
1.64127e-12
1.15658e-10
1.88598e-12
1.15747e-10
2.16085e-12
1.15848e-10
2.47042e-12
1.15962e-10
2.81967e-12
1.16091e-10
3.21456e-12
1.16235e-10
3.66126e-12
1.16399e-10
4.16792e-12
1.16579e-10
4.74219e-12
1.16784e-10
5.39508e-12
1.17008e-10
6.13589e-12
1.1726e-10
6.98025e-12
1.17533e-10
7.93919e-12
1.17841e-10
9.03487e-12
1.18166e-10
1.028e-11
1.18533e-10
1.17069e-11
1.18907e-10
1.33283e-11
1.19331e-10
1.51935e-11
1.19737e-10
1.73117e-11
1.202e-10
1.97599e-11
1.20594e-10
2.2535e-11
1.21054e-10
2.57632e-11
1.21337e-10
2.94069e-11
1.21713e-10
3.36846e-11
1.21669e-10
3.847e-11
1.21854e-10
4.41693e-11
1.2099e-10
5.04333e-11
1.21053e-10
5.80761e-11
6.00162e-11
6.62129e-11
5.80201e-11
-3.46835e-11
3.56835e-11
5.93926e-11
-5.65413e-11
5.55133e-11
3.97015e-11
-5.47069e-11
5.3269e-11
4.50531e-11
-5.18929e-11
5.00878e-11
5.10683e-11
-4.82148e-11
4.58231e-11
5.73345e-11
-4.32584e-11
4.02389e-11
6.37823e-11
-3.69312e-11
3.3259e-11
6.99672e-11
-2.92464e-11
2.4957e-11
7.55569e-11
-2.03482e-11
1.55134e-11
7.99908e-11
-1.04504e-11
5.26661e-12
8.28028e-11
1.15303e-10
4.8467e-14
1.15312e-10
1.46204e-13
1.15327e-10
2.46222e-13
1.15349e-10
3.50165e-13
1.15377e-10
4.59665e-13
1.15413e-10
5.7642e-13
1.15456e-10
7.024e-13
1.15508e-10
8.39528e-13
1.15568e-10
9.90093e-13
1.15639e-10
1.15634e-12
1.15721e-10
1.3411e-12
1.15815e-10
1.54739e-12
1.15922e-10
1.77848e-12
1.16045e-10
2.03823e-12
1.16184e-10
2.33097e-12
1.16342e-10
2.66154e-12
1.16521e-10
3.03546e-12
1.16723e-10
3.45899e-12
1.16952e-10
3.93963e-12
1.17208e-10
4.48523e-12
1.17498e-10
5.10599e-12
1.1782e-10
5.81202e-12
1.18185e-10
6.61711e-12
1.18587e-10
7.53455e-12
1.19041e-10
8.58305e-12
1.19537e-10
9.78024e-12
1.20096e-10
1.11518e-11
1.20696e-10
1.27215e-11
1.21371e-10
1.45242e-11
1.22079e-10
1.65934e-11
1.22873e-10
1.89754e-11
1.23671e-10
2.17208e-11
1.24564e-10
2.48843e-11
1.25392e-10
2.8555e-11
1.26328e-10
3.27701e-11
1.27029e-10
3.77326e-11
1.27913e-10
4.33199e-11
1.28112e-10
5.01761e-11
1.28958e-10
5.72943e-11
6.55004e-11
6.7362e-11
6.22019e-11
-3.60429e-11
3.66767e-11
6.51603e-11
-6.1486e-11
6.07089e-11
-4.09322e-11
4.15428e-11
-6.01194e-11
5.8981e-11
-4.67345e-11
4.77548e-11
-5.78612e-11
5.62386e-11
-5.3183e-11
5.4728e-11
-5.45048e-11
5.2195e-11
-6.00337e-11
6.22993e-11
-4.9693e-11
4.64895e-11
-6.70417e-11
7.02271e-11
-4.28711e-11
3.88647e-11
-7.40027e-11
7.79982e-11
-3.43758e-11
2.95002e-11
-8.03406e-11
8.52092e-11
-2.41734e-11
1.85042e-11
-8.53898e-11
9.10591e-11
-1.251e-11
6.3145e-12
-8.85488e-11
9.47573e-11
1.15399e-10
4.47027e-14
1.1541e-10
1.34877e-13
1.15429e-10
2.2723e-13
1.15456e-10
3.23141e-13
1.15491e-10
4.24243e-13
1.15536e-10
5.32108e-13
1.1559e-10
6.48387e-13
1.15654e-10
7.7505e-13
1.1573e-10
9.14116e-13
1.15819e-10
1.06779e-12
1.15921e-10
1.23865e-12
1.16039e-10
1.42949e-12
1.16174e-10
1.64328e-12
1.16329e-10
1.88381e-12
1.16505e-10
2.15501e-12
1.16705e-10
2.46139e-12
1.16933e-10
2.80822e-12
1.1719e-10
3.20155e-12
1.17482e-10
3.64814e-12
1.1781e-10
4.15587e-12
1.18184e-10
4.73383e-12
1.18602e-10
5.39276e-12
1.19077e-10
6.14436e-12
1.19605e-10
7.00375e-12
1.20207e-10
7.98576e-12
1.2087e-10
9.11277e-12
1.21626e-10
1.04025e-11
1.2245e-10
1.18901e-11
1.23393e-10
1.35937e-11
1.24401e-10
1.55729e-11
1.25558e-10
1.78373e-11
1.26762e-10
2.04963e-11
1.28152e-10
2.3525e-11
1.29533e-10
2.71418e-11
1.31137e-10
3.12126e-11
1.32605e-10
3.62147e-11
1.34312e-10
4.1682e-11
1.35644e-10
4.87679e-11
1.37069e-10
5.59707e-11
7.09292e-11
6.64178e-11
6.69707e-11
-3.66327e-11
3.67246e-11
7.10701e-11
-6.70191e-11
6.6645e-11
-4.24016e-11
4.26499e-11
-6.63976e-11
6.56685e-11
-4.90182e-11
4.96697e-11
-6.48934e-11
6.36414e-11
-5.65407e-11
5.77569e-11
-6.22049e-11
6.01679e-11
-6.48246e-11
6.68655e-11
-5.80763e-11
5.45836e-11
-7.32324e-11
7.67707e-11
-5.04087e-11
4.61285e-11
-8.21956e-11
8.65085e-11
-4.11251e-11
3.55937e-11
-9.0566e-11
9.61179e-11
-2.93831e-11
2.26288e-11
-9.73881e-11
1.04157e-10
-1.53722e-11
7.77979e-12
-1.01693e-10
1.09302e-10
1.15486e-10
4.03019e-14
1.15499e-10
1.21574e-13
1.15522e-10
2.04763e-13
1.15554e-10
2.91183e-13
1.15596e-10
3.82258e-13
1.15648e-10
4.79528e-13
1.15712e-10
5.84385e-13
1.15789e-10
6.98581e-13
1.15879e-10
8.2402e-13
1.15984e-10
9.62678e-13
1.16106e-10
1.11689e-12
1.16246e-10
1.28919e-12
1.16407e-10
1.48233e-12
1.16591e-10
1.69975e-12
1.16801e-10
1.9449e-12
1.1704e-10
2.2221e-12
1.17313e-10
2.53612e-12
1.17621e-10
2.89256e-12
1.17972e-10
3.29748e-12
1.18369e-10
3.75847e-12
1.1882e-10
4.28349e-12
1.19328e-10
4.8834e-12
1.19906e-10
5.56787e-12
1.20554e-10
6.35286e-12
1.21293e-10
7.24987e-12
1.22117e-10
8.28413e-12
1.23057e-10
9.46678e-12
1.241e-10
1.08402e-11
1.25291e-10
1.241e-11
1.266e-10
1.42525e-11
1.28097e-10
1.63513e-11
1.29722e-10
1.88547e-11
1.31581e-10
2.16823e-11
1.33557e-10
2.51404e-11
1.35819e-10
2.89757e-11
1.3814e-10
3.38568e-11
1.40785e-10
3.90765e-11
1.43335e-10
4.61606e-11
1.46128e-10
5.32421e-11
7.6435e-11
6.38542e-11
7.21689e-11
-3.62811e-11
3.5817e-11
7.70812e-11
-7.31394e-11
7.32746e-11
-4.29857e-11
4.27554e-11
-7.35222e-11
7.33575e-11
-5.03994e-11
5.05152e-11
-7.30635e-11
7.24313e-11
-5.91351e-11
5.97595e-11
-7.13007e-11
7.00862e-11
-6.94641e-11
7.07148e-11
-3.44114e-11
-4.14007e-11
3.32436e-11
4.22002e-11
-3.05139e-11
-4.81784e-11
2.912e-11
4.92839e-11
-2.4913e-11
-5.41592e-11
2.30776e-11
5.57856e-11
-1.72636e-11
-5.89891e-11
1.49717e-11
6.11494e-11
-7.79972e-12
6.43611e-11
-6.18231e-11
5.20656e-12
1.15563e-10
3.52857e-14
1.15578e-10
1.06358e-13
1.15604e-10
1.79129e-13
1.15641e-10
2.54778e-13
1.15688e-10
3.34459e-13
1.15748e-10
4.1949e-13
1.15821e-10
5.11272e-13
1.15909e-10
6.11293e-13
1.16012e-10
7.21127e-13
1.16132e-10
8.42575e-13
1.16271e-10
9.77654e-13
1.16432e-10
1.12865e-12
1.16616e-10
1.29803e-12
1.16827e-10
1.48872e-12
1.17068e-10
1.7038e-12
1.17343e-10
1.94727e-12
1.17656e-10
2.22308e-12
1.18012e-10
2.53649e-12
1.18418e-10
2.89261e-12
1.18877e-10
3.29868e-12
1.194e-10
3.76136e-12
1.19991e-10
4.29097e-12
1.20666e-10
4.89539e-12
1.21426e-10
5.59063e-12
1.22295e-10
6.385e-12
1.2327e-10
7.30471e-12
1.24388e-10
8.35572e-12
1.25637e-10
9.58392e-12
1.27073e-10
1.09853e-11
1.28668e-10
1.2645e-11
1.30507e-10
1.453e-11
1.32536e-10
1.68068e-11
1.34877e-10
1.93681e-11
1.37437e-10
2.25516e-11
1.40382e-10
2.60711e-11
1.43567e-10
3.06287e-11
1.47176e-10
3.5524e-11
1.51042e-10
4.22336e-11
1.55215e-10
4.9143e-11
8.19963e-11
5.93085e-11
7.76837e-11
-3.48487e-11
3.37216e-11
8.32688e-11
-7.97617e-11
8.05335e-11
-4.24408e-11
4.15956e-11
-8.14483e-11
8.20038e-11
-5.04887e-11
4.99013e-11
-8.2478e-11
8.25785e-11
-6.01865e-11
6.00885e-11
-8.23174e-11
8.15541e-11
-7.16409e-11
7.24361e-11
-4.16215e-11
-4.44541e-11
4.07393e-11
4.49678e-11
-3.79515e-11
-5.27229e-11
3.66393e-11
5.37947e-11
-3.19199e-11
-6.11289e-11
2.99339e-11
6.29696e-11
-2.27633e-11
-6.85123e-11
1.99583e-11
7.12409e-11
-1.04872e-11
7.65777e-11
-7.31746e-11
7.05929e-12
1.15633e-10
2.96756e-14
1.1565e-10
8.9458e-14
1.15678e-10
1.50716e-13
1.15719e-10
2.14385e-13
1.15772e-10
2.81491e-13
1.15838e-10
3.53038e-13
1.15919e-10
4.30259e-13
1.16016e-10
5.14495e-13
1.1613e-10
6.06961e-13
1.16263e-10
7.09277e-13
1.16418e-10
8.23084e-13
1.16596e-10
9.50337e-13
1.16801e-10
1.09315e-12
1.17036e-10
1.25391e-12
1.17305e-10
1.4354e-12
1.17611e-10
1.64091e-12
1.1796e-10
1.8738e-12
1.18358e-10
2.13869e-12
1.18811e-10
2.43974e-12
1.19325e-10
2.78352e-12
1.19912e-10
3.17526e-12
1.20577e-10
3.62444e-12
1.21337e-10
4.13712e-12
1.22197e-10
4.72843e-12
1.23181e-10
5.4039e-12
1.24292e-10
6.18887e-12
1.25567e-10
7.08526e-12
1.27006e-10
8.13872e-12
1.28659e-10
9.33857e-12
1.30522e-10
1.07714e-11
1.3267e-10
1.23935e-11
1.35085e-10
1.43763e-11
1.37873e-10
1.6596e-11
1.41002e-10
1.93999e-11
1.44614e-10
2.24827e-11
1.48657e-10
2.65528e-11
1.53298e-10
3.09189e-11
1.58481e-10
3.70042e-11
1.64306e-10
4.33699e-11
8.74734e-11
5.27338e-11
8.33425e-11
-3.21725e-11
3.03626e-11
8.9399e-11
-8.66923e-11
8.823e-11
-4.0511e-11
3.89149e-11
-8.99921e-11
9.149e-11
-4.89743e-11
4.74541e-11
-9.30192e-11
9.42395e-11
-5.95318e-11
5.8317e-11
-9.52572e-11
9.5768e-11
-7.26364e-11
7.2152e-11
-5.01068e-11
-4.62956e-11
4.9559e-11
4.64877e-11
-4.77356e-11
-5.69155e-11
4.66325e-11
5.78127e-11
-4.21592e-11
-6.88881e-11
4.00384e-11
7.09106e-11
-3.14951e-11
-8.05953e-11
2.78937e-11
8.41707e-11
-1.50409e-11
9.35944e-11
-8.87181e-11
1.01761e-11
1.15691e-10
2.3612e-14
1.15709e-10
7.12125e-14
1.1574e-10
1.19964e-13
1.15784e-10
1.70627e-13
1.15841e-10
2.24086e-13
1.15913e-10
2.81126e-13
1.16001e-10
3.42579e-13
1.16105e-10
4.0966e-13
1.16229e-10
4.83295e-13
1.16374e-10
5.64808e-13
1.16541e-10
6.55558e-13
1.16734e-10
7.56963e-13
1.16957e-10
8.70802e-13
1.17212e-10
9.99019e-13
1.17503e-10
1.14386e-12
1.17836e-10
1.30788e-12
1.18217e-10
1.49384e-12
1.18649e-10
1.70547e-12
1.19144e-10
1.94608e-12
1.19705e-10
2.22111e-12
1.20348e-10
2.53451e-12
1.21076e-10
2.89454e-12
1.2191e-10
3.30544e-12
1.22856e-10
3.78026e-12
1.23941e-10
4.32281e-12
1.2517e-10
4.95507e-12
1.26585e-10
5.67699e-12
1.28188e-10
6.52873e-12
1.30039e-10
7.4986e-12
1.32136e-10
8.66296e-12
1.34564e-10
9.98103e-12
1.37321e-10
1.16026e-11
1.40521e-10
1.34199e-11
1.44165e-10
1.57313e-11
1.48395e-10
1.82848e-11
1.53241e-10
2.16726e-11
1.58848e-10
2.53554e-11
1.65326e-10
3.04817e-11
1.72748e-10
3.6e-11
9.25648e-11
4.40226e-11
8.88388e-11
-2.81509e-11
2.56233e-11
9.51844e-11
-9.35999e-11
9.60216e-11
-3.69587e-11
3.44904e-11
-9.87769e-11
1.01437e-10
-4.54317e-11
4.27554e-11
-1.04294e-10
1.07042e-10
-5.6413e-11
5.3671e-11
-1.09806e-10
1.12305e-10
-7.07578e-11
6.82797e-11
-6.02501e-11
-4.63283e-11
6.03459e-11
4.58977e-11
-6.0649e-11
-5.97237e-11
6.02128e-11
5.99771e-11
-5.76426e-11
-7.66852e-11
5.61409e-11
7.81183e-11
-4.60878e-11
-9.60684e-11
4.16008e-11
1.00605e-10
-2.36726e-11
1.1908e-10
-1.1154e-10
1.62091e-11
1.15736e-10
1.71825e-14
1.15755e-10
5.18368e-14
1.15788e-10
8.73757e-14
1.15834e-10
1.24248e-13
1.15895e-10
1.63198e-13
1.15971e-10
2.04771e-13
1.16064e-10
2.49562e-13
1.16175e-10
2.98458e-13
1.16307e-10
3.52048e-13
1.1646e-10
4.11463e-13
1.16638e-10
4.77667e-13
1.16843e-10
5.5158e-13
1.1708e-10
6.34577e-13
1.1735e-10
7.28102e-13
1.17661e-10
8.33742e-13
1.18015e-10
9.53501e-13
1.1842e-10
1.08923e-12
1.18881e-10
1.24376e-12
1.19408e-10
1.41955e-12
1.20008e-10
1.62062e-12
1.20693e-10
1.8498e-12
1.21473e-10
2.11334e-12
1.22366e-10
2.41416e-12
1.23381e-10
2.76238e-12
1.24547e-10
3.16009e-12
1.25873e-10
3.6249e-12
1.27399e-10
4.15514e-12
1.29138e-10
4.7833e-12
1.31147e-10
5.4973e-12
1.3344e-10
6.35971e-12
1.36098e-10
7.33344e-12
1.39145e-10
8.54134e-12
1.4269e-10
9.89052e-12
1.46776e-10
1.16247e-11
1.51547e-10
1.35358e-11
1.57092e-10
1.61001e-11
1.63584e-10
1.88934e-11
1.71216e-10
2.28145e-11
1.80165e-10
2.70895e-11
9.69564e-11
3.33127e-11
9.38737e-11
-2.27539e-11
1.95692e-11
1.00212e-10
-1.00049e-10
1.03401e-10
-3.15914e-11
2.8204e-11
-1.0722e-10
1.11179e-10
-3.94669e-11
3.54974e-11
-1.15558e-10
1.20149e-10
-5.00501e-11
4.54643e-11
-1.25097e-10
1.30246e-10
-6.45485e-11
5.9416e-11
-7.16808e-11
-4.32261e-11
7.28215e-11
4.1789e-11
-7.68183e-11
-5.89626e-11
7.7781e-11
5.78391e-11
-7.97695e-11
-8.21846e-11
8.23455e-11
4.18667e-11
3.76651e-11
-3.43854e-11
5.97514e-11