/*--------------------------------*- C++ -*----------------------------------*\
| =========                 |                                                 |
| \\      /  F ield         | foam-extend: Open Source CFD                    |
|  \\    /   O peration     | Version:     4.0                                |
|   \\  /    A nd           | Web:         http://www.foam-extend.org         |
|    \\/     M anipulation  |                                                 |
\*---------------------------------------------------------------------------*/
FoamFile
{
    version     2.0;
    format      ascii;
    class       volVectorField;
    location    "0.002";
    object      U;
}
// * * * * * * * * * * * * * * * * * * * * * * * * * * * * * * * * * * * * * //

dimensions      [0 1 -1 0 0 0 0];

internalField   nonuniform List<vector> 
28770
(
(0.00388232 1.13037e-07 0)
(0.00388186 3.41513e-07 0)
(0.00388093 5.76197e-07 0)
(0.00387952 8.185e-07 0)
(0.0038776 1.07417e-06 0)
(0.00387516 1.34457e-06 0)
(0.00387213 1.63665e-06 0)
(0.0038685 1.94858e-06 0)
(0.00386419 2.2947e-06 0)
(0.00385915 2.67744e-06 0)
(0.0038533 3.09882e-06 0)
(0.00384654 3.56395e-06 0)
(0.00383879 4.08154e-06 0)
(0.00382992 4.66361e-06 0)
(0.00381981 5.31174e-06 0)
(0.00380831 6.03552e-06 0)
(0.00379523 6.84903e-06 0)
(0.00378044 7.75881e-06 0)
(0.00376365 8.77573e-06 0)
(0.00374473 9.91499e-06 0)
(0.00372328 1.11963e-05 0)
(0.00369918 1.26177e-05 0)
(0.0036719 1.42199e-05 0)
(0.00364135 1.59863e-05 0)
(0.00360681 1.79774e-05 0)
(0.00356827 2.01531e-05 0)
(0.00352476 2.2615e-05 0)
(0.00347637 2.5266e-05 0)
(0.00342188 2.82817e-05 0)
(0.00336151 3.14719e-05 0)
(0.00329376 3.51156e-05 0)
(0.00321899 3.88804e-05 0)
(0.0031355 4.3215e-05 0)
(0.00304371 4.75643e-05 0)
(0.00294194 5.26016e-05 0)
(0.00283049 5.74988e-05 0)
(0.00270801 6.3159e-05 0)
(0.00257454 6.85054e-05 0)
(0.00242938 7.45984e-05 0)
(0.0022722 8.0206e-05 0)
(0.00210321 8.6404e-05 0)
(0.00192181 9.19742e-05 0)
(0.00172915 9.78295e-05 0)
(0.00152467 0.000102947 0)
(0.00131031 0.000107964 0)
(0.00108585 0.000112131 0)
(0.000853852 0.000115821 0)
(0.000614574 0.000118557 0)
(0.000370999 0.000120516 0)
(0.000123807 0.000121471 0)
(0.00388277 3.37349e-07 0)
(0.00388231 1.02148e-06 0)
(0.0038814 1.71598e-06 0)
(0.00388001 2.43924e-06 0)
(0.00387812 3.20187e-06 0)
(0.00387571 4.01205e-06 0)
(0.00387273 4.88089e-06 0)
(0.00386915 5.82396e-06 0)
(0.0038649 6.85569e-06 0)
(0.00385994 7.99241e-06 0)
(0.00385416 9.24861e-06 0)
(0.00384751 1.06384e-05 0)
(0.00383986 1.21934e-05 0)
(0.00383113 1.39219e-05 0)
(0.00382115 1.58568e-05 0)
(0.00380982 1.80199e-05 0)
(0.00379692 2.04461e-05 0)
(0.00378233 2.31584e-05 0)
(0.00376576 2.62027e-05 0)
(0.00374709 2.95985e-05 0)
(0.00372592 3.34192e-05 0)
(0.00370214 3.76603e-05 0)
(0.00367519 4.2431e-05 0)
(0.00364503 4.77043e-05 0)
(0.00361089 5.36283e-05 0)
(0.00357281 6.01289e-05 0)
(0.00352976 6.74352e-05 0)
(0.00348192 7.53747e-05 0)
(0.00342795 8.42816e-05 0)
(0.0033682 9.3853e-05 0)
(0.00330102 0.000104563 0)
(0.00322692 0.000115917 0)
(0.00314401 0.000128567 0)
(0.00305289 0.000141774 0)
(0.00295166 0.000156358 0)
(0.00284082 0.000171333 0)
(0.00271879 0.000187643 0)
(0.00258574 0.000204091 0)
(0.00244084 0.00022162 0)
(0.00228376 0.000238946 0)
(0.00211473 0.000256844 0)
(0.001933 0.000274081 0)
(0.0017399 0.000291163 0)
(0.0015346 0.000306995 0)
(0.0013193 0.000321798 0)
(0.00109354 0.000334689 0)
(0.000860144 0.000345683 0)
(0.000619172 0.00035415 0)
(0.000373853 0.000360028 0)
(0.000124742 0.000362984 0)
(0.00388365 5.58836e-07 0)
(0.00388321 1.68398e-06 0)
(0.00388233 2.83372e-06 0)
(0.00388097 4.02565e-06 0)
(0.00387914 5.28315e-06 0)
(0.0038768 6.6199e-06 0)
(0.00387391 8.05534e-06 0)
(0.00387043 9.61375e-06 0)
(0.00386632 1.13181e-05 0)
(0.00386149 1.31914e-05 0)
(0.00385589 1.52634e-05 0)
(0.00384943 1.75643e-05 0)
(0.003842 2.0127e-05 0)
(0.00383352 2.29832e-05 0)
(0.00382382 2.618e-05 0)
(0.00381281 2.97584e-05 0)
(0.00380027 3.37685e-05 0)
(0.00378608 3.8253e-05 0)
(0.00376996 4.32903e-05 0)
(0.00375179 4.89122e-05 0)
(0.00373117 5.52351e-05 0)
(0.00370801 6.226e-05 0)
(0.00368173 7.01701e-05 0)
(0.00365232 7.8907e-05 0)
(0.00361898 8.87519e-05 0)
(0.00358179 9.95304e-05 0)
(0.00353968 0.000111696 0)
(0.00349287 0.000124866 0)
(0.00343997 0.000139757 0)
(0.00338137 0.000155635 0)
(0.00331537 0.00017363 0)
(0.00324249 0.000192462 0)
(0.00316082 0.000213838 0)
(0.00307092 0.000235717 0)
(0.00297089 0.000260528 0)
(0.00286112 0.00028532 0)
(0.00274009 0.000313246 0)
(0.00260781 0.00034047 0)
(0.00246351 0.000370626 0)
(0.00230669 0.000399354 0)
(0.00213762 0.000430188 0)
(0.00195542 0.000458882 0)
(0.00176138 0.00048825 0)
(0.00155467 0.000514725 0)
(0.00133743 0.000540101 0)
(0.00110924 0.00056174 0)
(0.000872908 0.00058054 0)
(0.00062862 0.00059479 0)
(0.000379649 0.000604825 0)
(0.000126702 0.000609806 0)
(0.00388496 7.69665e-07 0)
(0.00388454 2.32135e-06 0)
(0.00388369 3.91096e-06 0)
(0.0038824 5.55741e-06 0)
(0.00388065 7.28658e-06 0)
(0.00387842 9.12939e-06 0)
(0.00387566 1.11124e-05 0)
(0.00387235 1.32619e-05 0)
(0.00386841 1.56149e-05 0)
(0.00386381 1.81996e-05 0)
(0.00385844 2.1061e-05 0)
(0.00385228 2.42356e-05 0)
(0.00384517 2.77726e-05 0)
(0.00383706 3.17202e-05 0)
(0.00382778 3.61379e-05 0)
(0.00381724 4.10788e-05 0)
(0.00380524 4.6622e-05 0)
(0.00379165 5.28197e-05 0)
(0.0037762 5.97851e-05 0)
(0.00375878 6.75649e-05 0)
(0.00373899 7.63076e-05 0)
(0.00371676 8.60366e-05 0)
(0.0036915 9.69855e-05 0)
(0.00366323 0.000109094 0)
(0.00363109 0.000122734 0)
(0.00359529 0.000137702 0)
(0.00355457 0.000154562 0)
(0.0035094 0.00017289 0)
(0.00345808 0.000193538 0)
(0.00340137 0.000215703 0)
(0.00333708 0.000240652 0)
(0.00326629 0.000267045 0)
(0.00318636 0.000296678 0)
(0.00309862 0.0003275 0)
(0.00300024 0.000361901 0)
(0.00289244 0.000397031 0)
(0.00277279 0.000435768 0)
(0.00264193 0.000474586 0)
(0.00249849 0.000516521 0)
(0.00234208 0.000557703 0)
(0.00217302 0.000600811 0)
(0.00198986 0.00064213 0)
(0.00179458 0.000683516 0)
(0.00158537 0.000721776 0)
(0.00136534 0.000757847 0)
(0.00113314 0.000789221 0)
(0.000892505 0.00081614 0)
(0.000642952 0.000836859 0)
(0.000388558 0.000851298 0)
(0.00012962 0.000858553 0)
(0.00388668 9.72176e-07 0)
(0.00388628 2.92655e-06 0)
(0.00388549 4.92615e-06 0)
(0.00388428 7.00132e-06 0)
(0.00388264 9.18419e-06 0)
(0.00388054 1.15066e-05 0)
(0.00387796 1.40041e-05 0)
(0.00387484 1.6719e-05 0)
(0.00387115 1.96811e-05 0)
(0.00386683 2.29451e-05 0)
(0.0038618 2.65537e-05 0)
(0.003856 3.05583e-05 0)
(0.00384933 3.50265e-05 0)
(0.00384171 4.00109e-05 0)
(0.00383298 4.55888e-05 0)
(0.00382307 5.18276e-05 0)
(0.00381176 5.88339e-05 0)
(0.00379897 6.66715e-05 0)
(0.00378439 7.54894e-05 0)
(0.00376797 8.53299e-05 0)
(0.00374926 9.641e-05 0)
(0.00372825 0.00010874 0)
(0.00370431 0.000122637 0)
(0.00367753 0.000138008 0)
(0.00364699 0.000155357 0)
(0.00361296 0.000174387 0)
(0.00357413 0.000195911 0)
(0.00353103 0.000219245 0)
(0.00348189 0.000245718 0)
(0.00342751 0.00027398 0)
(0.00336565 0.000306159 0)
(0.00329735 0.000339852 0)
(0.00322002 0.000378364 0)
(0.00313478 0.000417751 0)
(0.00303897 0.000462855 0)
(0.00293345 0.000507793 0)
(0.00281603 0.000559074 0)
(0.00268688 0.00060885 0)
(0.00254489 0.000664808 0)
(0.00238923 0.000717895 0)
(0.00222028 0.000775677 0)
(0.0020364 0.000829408 0)
(0.00183937 0.000884896 0)
(0.00162745 0.000935097 0)
(0.00140347 0.000983442 0)
(0.00116632 0.00102491 0)
(0.000919553 0.001061 0)
(0.000663046 0.00108851 0)
(0.000400891 0.00110788 0)
(0.000133806 0.00111754 0)
(0.00388877 1.1587e-06 0)
(0.00388841 3.48768e-06 0)
(0.00388768 5.86873e-06 0)
(0.00388657 8.34443e-06 0)
(0.00388506 1.09461e-05 0)
(0.00388314 1.37151e-05 0)
(0.00388076 1.66944e-05 0)
(0.0038779 1.99254e-05 0)
(0.00387451 2.34616e-05 0)
(0.00387053 2.73563e-05 0)
(0.00386591 3.16615e-05 0)
(0.00386057 3.64424e-05 0)
(0.00385442 4.17724e-05 0)
(0.0038474 4.77247e-05 0)
(0.00383936 5.43918e-05 0)
(0.00383021 6.18485e-05 0)
(0.00381977 7.02228e-05 0)
(0.00380796 7.96015e-05 0)
(0.00379447 9.01492e-05 0)
(0.00377928 0.000101937 0)
(0.00376191 0.000115217 0)
(0.00374244 0.000130005 0)
(0.00372015 0.000146681 0)
(0.00369527 0.000165156 0)
(0.00366671 0.000186004 0)
(0.00363499 0.000208936 0)
(0.00359849 0.000234848 0)
(0.00355817 0.000263064 0)
(0.00351167 0.000294988 0)
(0.00346056 0.000329315 0)
(0.00340158 0.000368192 0)
(0.00333699 0.000409361 0)
(0.00326264 0.00045596 0)
(0.00318135 0.000504438 0)
(0.00308841 0.000559113 0)
(0.00298666 0.000614913 0)
(0.00287174 0.000677229 0)
(0.00274545 0.000739609 0)
(0.00260526 0.00080792 0)
(0.00245063 0.000875026 0)
(0.00228221 0.000946145 0)
(0.0020968 0.00101455 0)
(0.00189806 0.0010837 0)
(0.00168186 0.00114802 0)
(0.00145328 0.00120905 0)
(0.00120908 0.0012625 0)
(0.000954782 0.00130854 0)
(0.000688857 0.00134419 0)
(0.000416976 0.00136908 0)
(0.000139077 0.00138163 0)
(0.00389122 1.32444e-06 0)
(0.0038909 3.99588e-06 0)
(0.00389025 6.72774e-06 0)
(0.00388925 9.56232e-06 0)
(0.0038879 1.25455e-05 0)
(0.00388617 1.57191e-05 0)
(0.00388404 1.91349e-05 0)
(0.00388148 2.2843e-05 0)
(0.00387842 2.69021e-05 0)
(0.00387486 3.13659e-05 0)
(0.0038707 3.63095e-05 0)
(0.00386591 4.18014e-05 0)
(0.00386038 4.79224e-05 0)
(0.00385406 5.47605e-05 0)
(0.00384681 6.24211e-05 0)
(0.00383858 7.09997e-05 0)
(0.00382915 8.06379e-05 0)
(0.00381848 9.14362e-05 0)
(0.00380627 0.00010359 0)
(0.00379251 0.000117185 0)
(0.00377675 0.000132516 0)
(0.00375906 0.000149598 0)
(0.00373873 0.000168895 0)
(0.00371604 0.00019028 0)
(0.00368986 0.000214484 0)
(0.00366078 0.000241093 0)
(0.00362713 0.0002713 0)
(0.00358992 0.000304125 0)
(0.00354676 0.000341557 0)
(0.00349919 0.000381586 0)
(0.00344402 0.000427535 0)
(0.00338329 0.00047564 0)
(0.00331312 0.000531291 0)
(0.00323579 0.000588035 0)
(0.00314714 0.000654183 0)
(0.0030491 0.0007196 0)
(0.00293813 0.000796087 0)
(0.00281484 0.000869466 0)
(0.00267749 0.00095442 0)
(0.00252457 0.00103403 0)
(0.0023569 0.00112311 0)
(0.00217109 0.00120556 0)
(0.00197007 0.00129213 0)
(0.00175019 0.00137083 0)
(0.00151556 0.00144725 0)
(0.00126374 0.0015134 0)
(0.000999547 0.00157117 0)
(0.000722322 0.00161562 0)
(0.00043755 0.00164691 0)
(0.000146097 0.00166261 0)
(0.00389399 1.47474e-06 0)
(0.00389371 4.44649e-06 0)
(0.00389314 7.48589e-06 0)
(0.00389227 1.06411e-05 0)
(0.0038911 1.39595e-05 0)
(0.0038896 1.74925e-05 0)
(0.00388774 2.12922e-05 0)
(0.00388551 2.54245e-05 0)
(0.00388285 2.99431e-05 0)
(0.00387975 3.49174e-05 0)
(0.00387612 4.04267e-05 0)
(0.00387194 4.65482e-05 0)
(0.00386711 5.33761e-05 0)
(0.0038616 6.10032e-05 0)
(0.00385526 6.95562e-05 0)
(0.00384805 7.91354e-05 0)
(0.00383978 8.99094e-05 0)
(0.00383043 0.000101983 0)
(0.00381969 0.000115585 0)
(0.0038076 0.000130814 0)
(0.00379366 0.000147995 0)
(0.00377807 0.000167176 0)
(0.00375999 0.000188848 0)
(0.00373991 0.000212922 0)
(0.00371646 0.000240166 0)
(0.00369062 0.000270224 0)
(0.00366021 0.000304317 0)
(0.00362696 0.000341565 0)
(0.00358752 0.000383931 0)
(0.00354474 0.000429644 0)
(0.00349367 0.000481794 0)
(0.00343858 0.000537169 0)
(0.00337269 0.000600509 0)
(0.00330167 0.0006665 0)
(0.00321722 0.000741988 0)
(0.0031256 0.000819009 0)
(0.00301849 0.0009066 0)
(0.00290049 0.00099416 0)
(0.0027664 0.00109201 0)
(0.00261581 0.00118818 0)
(0.00245016 0.00129197 0)
(0.0022623 0.00139249 0)
(0.00205989 0.00149538 0)
(0.00183375 0.00159219 0)
(0.00159289 0.00168479 0)
(0.00133042 0.0017669 0)
(0.00105487 0.00183801 0)
(0.000763016 0.00189366 0)
(0.000462987 0.00193258 0)
(0.000154458 0.00195235 0)
(0.00389702 1.60052e-06 0)
(0.00389679 4.83012e-06 0)
(0.00389631 8.13227e-06 0)
(0.00389559 1.15601e-05 0)
(0.00389461 1.5167e-05 0)
(0.00389336 1.90073e-05 0)
(0.00389181 2.31401e-05 0)
(0.00388994 2.76282e-05 0)
(0.00388772 3.2543e-05 0)
(0.00388512 3.79567e-05 0)
(0.00388209 4.3951e-05 0)
(0.00387858 5.06164e-05 0)
(0.00387454 5.80534e-05 0)
(0.0038699 6.63652e-05 0)
(0.00386457 7.56925e-05 0)
(0.0038585 8.61445e-05 0)
(0.00385152 9.79062e-05 0)
(0.00384362 0.000111098 0)
(0.0038345 0.000125975 0)
(0.00382425 0.000142645 0)
(0.00381235 0.000161479 0)
(0.00379906 0.000182523 0)
(0.00378352 0.000206342 0)
(0.00376629 0.000232825 0)
(0.00374597 0.000262887 0)
(0.0037236 0.000296053 0)
(0.00369699 0.000333864 0)
(0.00366788 0.000375105 0)
(0.003633 0.000422429 0)
(0.00359501 0.000473201 0)
(0.0035493 0.000532024 0)
(0.00349953 0.000593706 0)
(0.00343975 0.000666121 0)
(0.00337432 0.000739755 0)
(0.00329647 0.000827615 0)
(0.00321029 0.000913621 0)
(0.00310962 0.00101779 0)
(0.00299639 0.00111576 0)
(0.00286747 0.00123461 0)
(0.00272036 0.00134335 0)
(0.00255694 0.00147072 0)
(0.00237026 0.00158772 0)
(0.00216559 0.00171317 0)
(0.00193565 0.00182849 0)
(0.00168663 0.00194141 0)
(0.00141376 0.00204086 0)
(0.00112367 0.00212794 0)
(0.000814921 0.00219601 0)
(0.000495011 0.00224386 0)
(0.000165449 0.00226815 0)
(0.00390028 1.70301e-06 0)
(0.0039001 5.13929e-06 0)
(0.00389972 8.65546e-06 0)
(0.00389916 1.23072e-05 0)
(0.00389839 1.61467e-05 0)
(0.0038974 2.02365e-05 0)
(0.00389618 2.4642e-05 0)
(0.00389471 2.94264e-05 0)
(0.00389296 3.46624e-05 0)
(0.00389091 4.04323e-05 0)
(0.00388851 4.68269e-05 0)
(0.00388575 5.39376e-05 0)
(0.00388254 6.18779e-05 0)
(0.00387887 7.07567e-05 0)
(0.00387462 8.07243e-05 0)
(0.0038698 9.19028e-05 0)
(0.00386422 0.00010449 0)
(0.00385792 0.000118623 0)
(0.00385058 0.000134571 0)
(0.00384236 0.000152466 0)
(0.0038327 0.000172691 0)
(0.003822 0.000195337 0)
(0.00380924 0.000220986 0)
(0.00379528 0.000249583 0)
(0.00377838 0.000282045 0)
(0.00376012 0.000318016 0)
(0.00373762 0.00035898 0)
(0.00371368 0.000403968 0)
(0.00368358 0.000455426 0)
(0.00365206 0.000511241 0)
(0.00361167 0.000575444 0)
(0.00356989 0.000643957 0)
(0.0035157 0.000723274 0)
(0.00345981 0.000806175 0)
(0.00338747 0.000902723 0)
(0.00331182 0.0010012 0)
(0.00321641 0.00111604 0)
(0.0031128 0.00123036 0)
(0.00298925 0.00136209 0)
(0.00284701 0.00149119 0)
(0.00268943 0.0016343 0)
(0.00249969 0.00177448 0)
(0.00229565 0.0019202 0)
(0.00205723 0.00205986 0)
(0.00180084 0.00219484 0)
(0.00151307 0.00231682 0)
(0.00120679 0.00242331 0)
(0.000876514 0.00250797 0)
(0.000533627 0.0025674 0)
(0.000178242 0.00259788 0)
(0.00390373 1.78236e-06 0)
(0.00390359 5.37641e-06 0)
(0.00390333 9.05233e-06 0)
(0.00390292 1.28706e-05 0)
(0.00390238 1.68874e-05 0)
(0.00390167 2.11642e-05 0)
(0.0039008 2.57737e-05 0)
(0.00389975 3.07812e-05 0)
(0.0038985 3.62654e-05 0)
(0.00389703 4.23105e-05 0)
(0.00389531 4.90097e-05 0)
(0.00389332 5.64618e-05 0)
(0.00389101 6.47918e-05 0)
(0.00388835 7.41127e-05 0)
(0.00388527 8.45774e-05 0)
(0.00388177 9.63265e-05 0)
(0.00387768 0.000109561 0)
(0.00387307 0.000124437 0)
(0.00386763 0.000141241 0)
(0.00386158 0.000160117 0)
(0.00385433 0.000181483 0)
(0.00384634 0.000205436 0)
(0.00383663 0.000232611 0)
(0.00382607 0.000262951 0)
(0.00381298 0.000297495 0)
(0.00379893 0.000335804 0)
(0.00378115 0.000379643 0)
(0.00376231 0.000427756 0)
(0.00373804 0.000483256 0)
(0.00371253 0.000543209 0)
(0.00367925 0.000613235 0)
(0.00364428 0.00068709 0)
(0.00359859 0.000774999 0)
(0.00355003 0.000864519 0)
(0.00348743 0.000974017 0)
(0.00341916 0.00108016 0)
(0.00333402 0.00121457 0)
(0.00323732 0.00133722 0)
(0.00312285 0.00149703 0)
(0.00298689 0.0016363 0)
(0.00283434 0.00181297 0)
(0.00265022 0.00197337 0)
(0.00244503 0.00214846 0)
(0.00220457 0.00231369 0)
(0.00193823 0.00247616 0)
(0.00163747 0.00262364 0)
(0.00131084 0.002753 0)
(0.000956012 0.00285647 0)
(0.000583056 0.00292917 0)
(0.000195291 0.00296663 0)
(0.00390729 1.83187e-06 0)
(0.00390722 5.52947e-06 0)
(0.00390706 9.31406e-06 0)
(0.00390683 1.32394e-05 0)
(0.00390651 1.73738e-05 0)
(0.0039061 2.17783e-05 0)
(0.0039056 2.65207e-05 0)
(0.00390499 3.16747e-05 0)
(0.00390425 3.7324e-05 0)
(0.0039034 4.35555e-05 0)
(0.00390238 5.04615e-05 0)
(0.0039012 5.81495e-05 0)
(0.00389982 6.67452e-05 0)
(0.00389824 7.63664e-05 0)
(0.00389637 8.71775e-05 0)
(0.00389427 9.93244e-05 0)
(0.00389175 0.000113019 0)
(0.00388894 0.000128431 0)
(0.00388551 0.000145848 0)
(0.00388176 0.000165444 0)
(0.00387707 0.000187644 0)
(0.00387206 0.000212583 0)
(0.00386556 0.000240897 0)
(0.00385881 0.000272613 0)
(0.00384971 0.000308723 0)
(0.00384056 0.000348971 0)
(0.00382765 0.000394975 0)
(0.00381514 0.000445864 0)
(0.00379662 0.000504364 0)
(0.00377933 0.000568356 0)
(0.00375255 0.000642508 0)
(0.00372828 0.000722319 0)
(0.00368943 0.000815826 0)
(0.00365468 0.000914202 0)
(0.00359862 0.00103109 0)
(0.00354736 0.00115039 0)
(0.00346811 0.00129417 0)
(0.00338936 0.00143591 0)
(0.00328211 0.00160709 0)
(0.00315637 0.00177226 0)
(0.00301947 0.00196333 0)
(0.00282819 0.00215392 0)
(0.00262888 0.00235542 0)
(0.00237811 0.00255416 0)
(0.00210432 0.00274862 0)
(0.00178413 0.00292917 0)
(0.00143477 0.00308892 0)
(0.00104901 0.00321874 0)
(0.000641485 0.00331061 0)
(0.000214919 0.00335831 0)
(0.00391094 1.85662e-06 0)
(0.00391091 5.59917e-06 0)
(0.00391088 9.43037e-06 0)
(0.00391082 1.34108e-05 0)
(0.00391074 1.75987e-05 0)
(0.00391063 2.20621e-05 0)
(0.0039105 2.68696e-05 0)
(0.00391033 3.20968e-05 0)
(0.00391013 3.78246e-05 0)
(0.00390989 4.41441e-05 0)
(0.0039096 5.11585e-05 0)
(0.00390927 5.89653e-05 0)
(0.00390884 6.76964e-05 0)
(0.00390837 7.74787e-05 0)
(0.00390775 8.8479e-05 0)
(0.00390708 0.000100847 0)
(0.00390618 0.000114802 0)
(0.00390522 0.000130522 0)
(0.00390388 0.000148304 0)
(0.0039025 0.000168343 0)
(0.00390049 0.000191063 0)
(0.00389849 0.000216636 0)
(0.00389541 0.000245713 0)
(0.00389249 0.000278352 0)
(0.00388774 0.000315593 0)
(0.00388339 0.000357194 0)
(0.00387603 0.000404912 0)
(0.00386943 0.000457788 0)
(0.00385798 0.000518936 0)
(0.00384779 0.000585815 0)
(0.00383001 0.000664182 0)
(0.00381399 0.000748059 0)
(0.00378648 0.000848525 0)
(0.00376081 0.00095224 0)
(0.0037187 0.00108118 0)
(0.00367675 0.00120639 0)
(0.00361359 0.00137203 0)
(0.00354372 0.00151759 0)
(0.00345221 0.0017284 0)
(0.00333572 0.00189219 0)
(0.00320805 0.00213731 0)
(0.00303414 0.00235605 0)
(0.00283694 0.00259194 0)
(0.00258959 0.00282859 0)
(0.00230543 0.00306041 0)
(0.00197069 0.0032811 0)
(0.00159438 0.00347527 0)
(0.0011731 0.00363524 0)
(0.000719716 0.0037481 0)
(0.00024199 0.00380725 0)
(0.00391459 1.8556e-06 0)
(0.00391463 5.58909e-06 0)
(0.00391471 9.40853e-06 0)
(0.00391482 1.33765e-05 0)
(0.00391498 1.75553e-05 0)
(0.00391518 2.20117e-05 0)
(0.00391542 2.68115e-05 0)
(0.00391572 3.20306e-05 0)
(0.00391605 3.77545e-05 0)
(0.00391645 4.40698e-05 0)
(0.00391688 5.10799e-05 0)
(0.0039174 5.88898e-05 0)
(0.00391795 6.76295e-05 0)
(0.00391859 7.74278e-05 0)
(0.00391925 8.84461e-05 0)
(0.00392004 0.000100853 0)
(0.0039208 0.000114856 0)
(0.00392174 0.000130649 0)
(0.00392255 0.000148532 0)
(0.00392363 0.000168714 0)
(0.00392437 0.000191619 0)
(0.00392557 0.000217461 0)
(0.003926 0.000246855 0)
(0.00392724 0.000279968 0)
(0.00392691 0.000317759 0)
(0.00392802 0.000360195 0)
(0.00392615 0.000408829 0)
(0.00392679 0.000463163 0)
(0.00392198 0.000525808 0)
(0.00392154 0.000595199 0)
(0.00391141 0.000675955 0)
(0.00390879 0.000764169 0)
(0.00388936 0.000868321 0)
(0.00388249 0.00097952 0)
(0.00384748 0.00111385 0)
(0.00383215 0.00125197 0)
(0.00377283 0.00142478 0)
(0.00373831 0.00159232 0)
(0.00364891 0.00181073 0)
(0.00355677 0.00200956 0)
(0.00347366 0.002258 0)
(0.00327335 0.00251479 0)
(0.00309157 0.00278904 0)
(0.00283682 0.00307179 0)
(0.00254741 0.00335234 0)
(0.00219035 0.00362252 0)
(0.00178154 0.00386742 0)
(0.00131617 0.0040726 0)
(0.000809903 0.00422003 0)
(0.000272832 0.00429771 0)
(0.00391822 1.81963e-06 0)
(0.00391832 5.48731e-06 0)
(0.00391851 9.24253e-06 0)
(0.0039188 1.31428e-05 0)
(0.00391919 1.72495e-05 0)
(0.00391969 2.16289e-05 0)
(0.00392031 2.63463e-05 0)
(0.00392105 3.14819e-05 0)
(0.00392192 3.71125e-05 0)
(0.00392294 4.33278e-05 0)
(0.00392411 5.02285e-05 0)
(0.00392547 5.79209e-05 0)
(0.00392699 6.6534e-05 0)
(0.00392875 7.61951e-05 0)
(0.00393069 8.70703e-05 0)
(0.00393293 9.93188e-05 0)
(0.00393535 0.000113161 0)
(0.00393819 0.000128789 0)
(0.00394115 0.000146497 0)
(0.00394469 0.000166516 0)
(0.00394821 0.00018925 0)
(0.00395258 0.000214957 0)
(0.00395662 0.000244233 0)
(0.00396192 0.000277307 0)
(0.0039663 0.000315089 0)
(0.00397256 0.000357689 0)
(0.00397685 0.000406557 0)
(0.00398397 0.000461447 0)
(0.00398727 0.000524802 0)
(0.00399481 0.000595469 0)
(0.00399545 0.000677837 0)
(0.00400235 0.000768547 0)
(0.00399734 0.000876085 0)
(0.00400123 0.000991579 0)
(0.00398547 0.00113317 0)
(0.0039812 0.00127707 0)
(0.00394684 0.00146779 0)
(0.00392163 0.00163576 0)
(0.00386075 0.00191111 0)
(0.00377367 0.00206091 0)
(0.00370274 0.00241864 0)
(0.0035541 0.00273099 0)
(0.00338231 0.00302277 0)
(0.00314114 0.00336376 0)
(0.00284468 0.00369688 0)
(0.00247503 0.0040341 0)
(0.00203507 0.00433464 0)
(0.00151837 0.00458961 0)
(0.000940136 0.0047726 0)
(0.000318041 0.00487013 0)
(0.00392175 1.75788e-06 0)
(0.0039219 5.30714e-06 0)
(0.0039222 8.93813e-06 0)
(0.00392267 1.2708e-05 0)
(0.00392329 1.66801e-05 0)
(0.00392409 2.09145e-05 0)
(0.00392507 2.54823e-05 0)
(0.00392626 3.04512e-05 0)
(0.00392765 3.59044e-05 0)
(0.00392929 4.19233e-05 0)
(0.00393118 4.86081e-05 0)
(0.00393336 5.60678e-05 0)
(0.00393584 6.44197e-05 0)
(0.0039387 7.37992e-05 0)
(0.0039419 8.43595e-05 0)
(0.00394559 9.62664e-05 0)
(0.00394965 0.000109726 0)
(0.00395438 0.000124943 0)
(0.00395948 0.000142197 0)
(0.0039655 0.00016174 0)
(0.0039718 0.00018395 0)
(0.00397941 0.000209119 0)
(0.00398704 0.000237805 0)
(0.00399661 0.000270322 0)
(0.00400561 0.000307484 0)
(0.00401758 0.000349594 0)
(0.00402774 0.000397893 0)
(0.00404257 0.000452531 0)
(0.00405321 0.000515531 0)
(0.0040714 0.000586543 0)
(0.00408088 0.000669058 0)
(0.00410291 0.00076139 0)
(0.00410775 0.000870079 0)
(0.00413421 0.000989833 0)
(0.00412702 0.00113433 0)
(0.0041598 0.001288 0)
(0.00412405 0.00148408 0)
(0.00417239 0.00167439 0)
(0.00406522 0.00195611 0)
(0.00417668 0.00216254 0)
(0.00404089 0.0024459 0)
(0.00376047 0.00251314 0)
(0.00365066 0.0028573 0)
(0.00346327 0.00324833 0)
(0.00320821 0.00364743 0)
(0.00285897 0.00405935 0)
(0.00240856 0.00446182 0)
(0.00186217 0.00483138 0)
(0.0012346 0.00512834 0)
(0.000545174 0.0053251 0)
(0.00392514 1.67246e-06 0)
(0.00392534 5.04524e-06 0)
(0.00392575 8.49473e-06 0)
(0.00392638 1.20794e-05 0)
(0.00392723 1.58542e-05 0)
(0.00392831 1.98813e-05 0)
(0.00392965 2.42273e-05 0)
(0.00393125 2.89544e-05 0)
(0.00393315 3.41461e-05 0)
(0.00393539 3.98759e-05 0)
(0.00393796 4.62428e-05 0)
(0.00394095 5.33501e-05 0)
(0.00394435 6.1312e-05 0)
(0.00394827 7.02572e-05 0)
(0.00395269 8.0335e-05 0)
(0.00395778 9.17119e-05 0)
(0.00396344 0.000104578 0)
(0.00396999 0.000119141 0)
(0.00397718 0.000135664 0)
(0.00398557 0.000154406 0)
(0.00399461 0.000175722 0)
(0.00400531 0.00019994 0)
(0.00401655 0.000227545 0)
(0.00403015 0.000258958 0)
(0.00404392 0.000294841 0)
(0.00406108 0.000335739 0)
(0.00407764 0.000382566 0)
(0.00409915 0.000436023 0)
(0.00411849 0.00049737 0)
(0.00414514 0.000567569 0)
(0.00416667 0.000648268 0)
(0.00419919 0.000740944 0)
(0.00422102 0.000847471 0)
(0.00425997 0.000970629 0)
(0.00427742 0.00111131 0)
(0.00432367 0.00127667 0)
(0.00432518 0.00146054 0)
(0.00438383 0.00168783 0)
(0.00433874 0.00191563 0)
(0.00444143 0.00225165 0)
(0.00446873 0.00249384 0)
(0.00410628 0.00267723 0)
(0.00402601 0.00308149 0)
(0.00387353 0.0035303 0)
(0.00363742 0.00400732 0)
(0.00329672 0.00449394 0)
(0.002804 0.00499988 0)
(0.00219274 0.00546919 0)
(0.00146739 0.00584821 0)
(0.000651155 0.00609123 0)
(0.00392832 1.55867e-06 0)
(0.00392858 4.70169e-06 0)
(0.0039291 7.92008e-06 0)
(0.00392987 1.12649e-05 0)
(0.00393093 1.47901e-05 0)
(0.00393229 1.85467e-05 0)
(0.00393395 2.25994e-05 0)
(0.00393596 2.70142e-05 0)
(0.00393834 3.18601e-05 0)
(0.00394114 3.72131e-05 0)
(0.00394437 4.31636e-05 0)
(0.00394812 4.98095e-05 0)
(0.00395239 5.72531e-05 0)
(0.00395733 6.5625e-05 0)
(0.0039629 7.50633e-05 0)
(0.00396932 8.57238e-05 0)
(0.00397651 9.77855e-05 0)
(0.00398482 0.000111458 0)
(0.00399401 0.000126978 0)
(0.00400472 0.000144609 0)
(0.00401638 0.000164677 0)
(0.00403015 0.000187528 0)
(0.00404483 0.000213595 0)
(0.00406251 0.000243345 0)
(0.00408079 0.000277362 0)
(0.00410347 0.000316277 0)
(0.00412593 0.000360888 0)
(0.00415498 0.000412075 0)
(0.00418202 0.000470909 0)
(0.00421915 0.000538661 0)
(0.00425065 0.00061676 0)
(0.00429795 0.000707109 0)
(0.00433264 0.000811483 0)
(0.00439256 0.000933037 0)
(0.00442668 0.00107336 0)
(0.00450175 0.00123884 0)
(0.00452664 0.00142745 0)
(0.00461801 0.00165724 0)
(0.00461728 0.00190399 0)
(0.00471505 0.00223915 0)
(0.00488636 0.00248797 0)
(0.00449924 0.00279174 0)
(0.00446555 0.00324994 0)
(0.00436 0.00377199 0)
(0.0041644 0.00434403 0)
(0.00387959 0.00489464 0)
(0.00331109 0.00555953 0)
(0.00262979 0.00618344 0)
(0.0017841 0.00669209 0)
(0.000795986 0.00701598 0)
(0.00393127 1.4215e-06 0)
(0.00393157 4.29013e-06 0)
(0.00393218 7.2286e-06 0)
(0.0039331 1.02779e-05 0)
(0.00393435 1.34927e-05 0)
(0.00393596 1.69272e-05 0)
(0.00393793 2.06264e-05 0)
(0.00394032 2.46558e-05 0)
(0.00394314 2.90809e-05 0)
(0.00394645 3.39727e-05 0)
(0.00395029 3.94128e-05 0)
(0.00395475 4.54896e-05 0)
(0.00395984 5.22991e-05 0)
(0.00396571 5.9962e-05 0)
(0.00397236 6.86039e-05 0)
(0.00398003 7.83688e-05 0)
(0.00398864 8.94292e-05 0)
(0.00399857 0.000101979 0)
(0.00400964 0.000116232 0)
(0.00402248 0.000132449 0)
(0.00403663 0.000150912 0)
(0.00405321 0.00017199 0)
(0.0040712 0.000196029 0)
(0.00409258 0.000223571 0)
(0.00411533 0.000255022 0)
(0.00414287 0.000291241 0)
(0.00417144 0.000332614 0)
(0.00420688 0.000380599 0)
(0.00424244 0.00043534 0)
(0.00428795 0.000499532 0)
(0.0043316 0.000572395 0)
(0.00438985 0.00065931 0)
(0.00444225 0.00075685 0)
(0.0045164 0.000876416 0)
(0.00457685 0.00100748 0)
(0.00467037 0.00117548 0)
(0.00473487 0.00135135 0)
(0.00485043 0.00159396 0)
(0.00490852 0.00182739 0)
(0.0050406 0.0021887 0)
(0.00528571 0.00242884 0)
(0.00493437 0.00283651 0)
(0.00496809 0.00334724 0)
(0.00492806 0.00395575 0)
(0.00477409 0.00469051 0)
(0.00453819 0.00559201 0)
(0.00401309 0.00645108 0)
(0.00321365 0.00727047 0)
(0.0021315 0.00796011 0)
(0.000816223 0.00838451 0)
(0.00393392 1.26529e-06 0)
(0.00393427 3.81479e-06 0)
(0.00393496 6.42228e-06 0)
(0.00393601 9.13433e-06 0)
(0.00393744 1.19912e-05 0)
(0.00393927 1.50413e-05 0)
(0.00394153 1.83326e-05 0)
(0.00394425 2.19163e-05 0)
(0.00394747 2.58538e-05 0)
(0.00395125 3.02058e-05 0)
(0.00395564 3.50466e-05 0)
(0.00396074 4.04563e-05 0)
(0.00396657 4.6523e-05 0)
(0.00397329 5.33544e-05 0)
(0.00398093 6.10562e-05 0)
(0.00398972 6.97714e-05 0)
(0.00399963 7.96458e-05 0)
(0.00401106 9.08582e-05 0)
(0.00402385 0.000103601 0)
(0.00403868 0.000118116 0)
(0.0040551 0.000134654 0)
(0.00407432 0.000153571 0)
(0.00409533 0.000175163 0)
(0.00412028 0.000199953 0)
(0.00414705 0.000228303 0)
(0.00417945 0.000261035 0)
(0.00421344 0.000298505 0)
(0.00425557 0.000342082 0)
(0.00429847 0.00039199 0)
(0.00435335 0.000450633 0)
(0.00440709 0.00051769 0)
(0.00447856 0.000597669 0)
(0.00454523 0.000688637 0)
(0.00463797 0.000799608 0)
(0.00471952 0.000924236 0)
(0.00483845 0.00108164 0)
(0.0049364 0.00125376 0)
(0.00508413 0.00148342 0)
(0.00519964 0.00172208 0)
(0.00536826 0.00206825 0)
(0.00569002 0.00229974 0)
(0.00540983 0.00279457 0)
(0.00553441 0.00334371 0)
(0.00559897 0.00401269 0)
(0.00556342 0.00481399 0)
(0.0055053 0.00596827 0)
(0.00503783 0.00708392 0)
(0.00418981 0.00824314 0)
(0.00288784 0.00928545 0)
(0.00116934 0.00995943 0)
(0.00393624 1.08709e-06 0)
(0.00393662 3.27574e-06 0)
(0.00393739 5.51965e-06 0)
(0.00393856 7.85085e-06 0)
(0.00394014 1.03061e-05 0)
(0.00394216 1.29247e-05 0)
(0.00394467 1.57522e-05 0)
(0.00394768 1.88366e-05 0)
(0.00395126 2.22213e-05 0)
(0.00395545 2.59658e-05 0)
(0.00396033 3.01303e-05 0)
(0.00396598 3.47868e-05 0)
(0.00397247 4.00122e-05 0)
(0.00397994 4.58933e-05 0)
(0.00398844 5.25308e-05 0)
(0.00399822 6.00464e-05 0)
(0.00400928 6.85595e-05 0)
(0.00402202 7.82409e-05 0)
(0.00403633 8.92399e-05 0)
(0.0040529 0.000101796 0)
(0.00407135 0.000116103 0)
(0.00409287 0.000132494 0)
(0.00411662 0.000151196 0)
(0.00414462 0.000172755 0)
(0.00417514 0.000197363 0)
(0.00421161 0.000225946 0)
(0.00425081 0.000258543 0)
(0.00429843 0.000296846 0)
(0.00434873 0.000340361 0)
(0.00441103 0.000392366 0)
(0.00447557 0.000450976 0)
(0.00455723 0.000522785 0)
(0.00463998 0.00060257 0)
(0.00474708 0.000703834 0)
(0.00485301 0.000813835 0)
(0.00499303 0.000960268 0)
(0.00512828 0.00111451 0)
(0.005309 0.00133216 0)
(0.00548117 0.00155412 0)
(0.00570556 0.00188565 0)
(0.00608073 0.0020932 0)
(0.00591099 0.00264996 0)
(0.00615093 0.00322011 0)
(0.00635916 0.00393847 0)
(0.00649775 0.0048407 0)
(0.00666686 0.00618105 0)
(0.00638569 0.00764077 0)
(0.0055865 0.00929743 0)
(0.00403935 0.010947 0)
(0.00171197 0.0121192 0)
(0.00393819 8.91283e-07 0)
(0.0039386 2.68813e-06 0)
(0.00393943 4.52808e-06 0)
(0.0039407 6.44147e-06 0)
(0.00394241 8.45996e-06 0)
(0.00394461 1.06112e-05 0)
(0.00394731 1.29318e-05 0)
(0.00395058 1.54631e-05 0)
(0.00395445 1.82427e-05 0)
(0.003959 2.13193e-05 0)
(0.00396428 2.47419e-05 0)
(0.00397041 2.85689e-05 0)
(0.00397744 3.28644e-05 0)
(0.00398555 3.77005e-05 0)
(0.00399479 4.31626e-05 0)
(0.00400542 4.93478e-05 0)
(0.00401745 5.63603e-05 0)
(0.00403131 6.43387e-05 0)
(0.00404692 7.34095e-05 0)
(0.00406498 8.37717e-05 0)
(0.00408516 9.55814e-05 0)
(0.00410869 0.000109135 0)
(0.00413475 0.000124612 0)
(0.00416548 0.000142473 0)
(0.00419914 0.000162897 0)
(0.00423935 0.000186645 0)
(0.00428286 0.000213808 0)
(0.00433568 0.000245735 0)
(0.004392 0.00028221 0)
(0.00446166 0.00032573 0)
(0.0045348 0.000375257 0)
(0.004627 0.000435638 0)
(0.00472251 0.000503833 0)
(0.00484483 0.000589493 0)
(0.00497061 0.000685013 0)
(0.00513287 0.000809917 0)
(0.00530055 0.00094675 0)
(0.00551458 0.00113479 0)
(0.0057416 0.00133721 0)
(0.00601991 0.00162994 0)
(0.00644334 0.0017983 0)
(0.00641565 0.00238914 0)
(0.00679083 0.00295046 0)
(0.00717991 0.00368461 0)
(0.00755627 0.0046548 0)