/*--------------------------------*- C++ -*----------------------------------*\
| =========                 |                                                 |
| \\      /  F ield         | foam-extend: Open Source CFD                    |
|  \\    /   O peration     | Version:     4.0                                |
|   \\  /    A nd           | Web:         http://www.foam-extend.org         |
|    \\/     M anipulation  |                                                 |
\*---------------------------------------------------------------------------*/
FoamFile
{
    version     2.0;
    format      ascii;
    class       volScalarField;
    location    "0.001";
    object      k;
}
// * * * * * * * * * * * * * * * * * * * * * * * * * * * * * * * * * * * * * //

dimensions      [0 2 -2 0 0 0 0];

internalField   nonuniform List<scalar> 
28770
(
4.03594e-07
9.89211e-07
1.48673e-06
1.93996e-06
2.35443e-06
2.73689e-06
3.08852e-06
3.41044e-06
3.70334e-06
3.96785e-06
4.2046e-06
4.41431e-06
4.59774e-06
4.75565e-06
4.88881e-06
4.99794e-06
5.08367e-06
5.1465e-06
5.1868e-06
5.20479e-06
5.20053e-06
5.17391e-06
5.12469e-06
5.05264e-06
4.95744e-06
4.83882e-06
4.69664e-06
4.53097e-06
4.34216e-06
4.13095e-06
3.89852e-06
3.6466e-06
3.37746e-06
3.09398e-06
2.79961e-06
2.49838e-06
2.19479e-06
1.89374e-06
1.6004e-06
1.32001e-06
1.05775e-06
8.1843e-07
6.06313e-07
4.24802e-07
2.76212e-07
1.61544e-07
8.02799e-08
3.01032e-08
6.34309e-09
4.48499e-10
1.22025e-05
2.95399e-05
4.42927e-05
5.77493e-05
7.00667e-05
8.14302e-05
9.18794e-05
0.000101446
0.00011015
0.00011801
0.000125046
0.000131278
0.000136728
0.00014142
0.000145377
0.000148619
0.000151165
0.00015303
0.000154226
0.000154758
0.000154628
0.000153833
0.000152366
0.00015022
0.000147385
0.000143853
0.000139621
0.000134689
0.00012907
0.000122784
0.000115868
0.000108372
0.000100364
9.19296e-05
8.31726e-05
7.42121e-05
6.51824e-05
5.62292e-05
4.75061e-05
3.91695e-05
3.13728e-05
2.42598e-05
1.79568e-05
1.25651e-05
8.15341e-06
4.75146e-06
2.34379e-06
8.61829e-07
1.67846e-07
6.75314e-09
8.10155e-05
0.000204325
0.000306565
0.000398965
0.000483564
0.000561579
0.000633335
0.000699034
0.000758812
0.000812793
0.000861108
0.000903899
0.000941321
0.000973531
0.00100068
0.00102292
0.00104038
0.00105315
0.00106131
0.0010649
0.00106394
0.0010584
0.00104822
0.00103337
0.00101377
0.000989362
0.000960128
0.000926078
0.000887286
0.000843904
0.000796179
0.000744465
0.000689233
0.000631073
0.000570701
0.000508941
0.000446722
0.000385049
0.000324982
0.0002676
0.000213963
0.000165061
0.000121766
8.47763e-05
5.45664e-05
3.13451e-05
1.50247e-05
5.18407e-06
8.8571e-07
3.20679e-08
0.00026934
0.000713052
0.00107954
0.00140528
0.00170179
0.00197454
0.00222526
0.00245476
0.00266357
0.0028521
0.00302083
0.00317025
0.00330089
0.0034133
0.00350802
0.00358555
0.00364633
0.00369072
0.00371895
0.00373117
0.00372741
0.00370758
0.00367151
0.00361898
0.00354979
0.00346372
0.00336069
0.00324073
0.00310411
0.00295138
0.0027834
0.00260143
0.00240713
0.0022026
0.00199034
0.00177329
0.00155471
0.00133815
0.00112734
0.000926084
0.000738123
0.000566955
0.000415668
0.00028675
0.000181931
0.000102066
4.70152e-05
1.52348e-05
2.42623e-06
8.52153e-08
0.000636073
0.00174729
0.0026804
0.00350086
0.004241
0.00491815
0.00553906
0.00610678
0.00662299
0.00708893
0.0075058
0.00787487
0.00819744
0.00847489
0.00870853
0.00889961
0.00904918
0.00915811
0.00922699
0.00925614
0.00924559
0.00919511
0.00910423
0.00897245
0.00879915
0.00858386
0.0083263
0.0080266
0.00768542
0.00730412
0.00688489
0.00643087
0.00594625
0.00543627
0.00490725
0.0043665
0.0038222
0.00328325
0.002759
0.00225898
0.0017926
0.0013687
0.000995148
0.000678373
0.000422996
0.000231389
0.000102908
3.19755e-05
4.92498e-06
1.70773e-07
0.00123374
0.00347381
0.00539936
0.00708956
0.00860314
0.0099787
0.0112347
0.0123804
0.0134206
0.0143588
0.0151976
0.0159398
0.0165883
0.0171456
0.0176147
0.0179978
0.0182972
0.0185145
0.018651
0.018707
0.0186828
0.0185776
0.0183907
0.0181207
0.0177665
0.017327
0.0168017
0.0161909
0.0154957
0.0147192
0.0138657
0.0129416
0.0119557
0.0109185
0.00984315
0.00874451
0.00763938
0.00654595
0.00548344
0.00447145
0.00352941
0.00267574
0.00192697
0.00129677
0.000794796
0.000425236
0.000184217
5.57764e-05
8.4423e-06
2.90641e-07
0.00210585
0.00602573
0.00947247
0.0125124
0.0152247
0.0176753
0.019902
0.0219261
0.0237597
0.0254108
0.0268855
0.0281893
0.0293275
0.030305
0.0311269
0.0317973
0.0323201
0.0326981
0.0329333
0.0330266
0.0329778
0.0327859
0.032449
0.031965
0.0313316
0.0305469
0.0296098
0.0285207
0.0272821
0.0258989
0.0243792
0.0227347
0.0209806
0.0191363
0.0172251
0.0152739
0.0133129
0.0113747
0.00949396
0.00770622
0.00604675
0.00454926
0.00324414
0.00215609
0.00130134
0.000683967
0.000290832
8.6635e-05
1.29779e-05
4.44682e-07
0.00328411
0.00949721
0.0150671
0.0200191
0.024437
0.0284126
0.0320086
0.0352647
0.0382058
0.0408485
0.0432051
0.0452859
0.0471004
0.0486572
0.0499643
0.051029
0.0518571
0.0524532
0.0528203
0.0529597
0.0528709
0.0525519
0.0519996
0.0512103
0.0501802
0.0489059
0.0473857
0.0456203
0.0436135
0.0413735
0.0389136
0.0362527
0.033416
0.0304352
0.0273484
0.0241998
0.0210388
0.0179192
0.014898
0.0120336
0.00938438
0.00700622
0.00494912
0.00325214
0.00193754
0.00100438
0.00042148
0.000124208
1.84799e-05
6.31398e-07
0.00478695
0.0139405
0.0222767
0.029755
0.0364431
0.0424499
0.0478638
0.0527479
0.0571453
0.0610863
0.0645933
0.0676849
0.0703768
0.0726833
0.074617
0.0761889
0.0774081
0.0782814
0.0788129
0.0790042
0.0788545
0.0783603
0.0775167
0.0763178
0.0747574
0.0728305
0.0705343
0.0678696
0.0648424
0.0614651
0.0577581
0.0537502
0.0494802
0.0449965
0.0403576
0.0356311
0.0308929
0.0262255
0.0217162
0.0174545
0.0135295
0.0100265
0.00702078
0.00456767
0.00269212
0.00138068
0.000573896
0.000167873
2.48588e-05
8.48081e-07
0.00661928
0.019365
0.0311192
0.0417556
0.0513058
0.0598817
0.067593
0.0745278
0.0807521
0.0863147
0.0912531
0.0955977
0.0993739
0.102604
0.105307
0.1075
0.109195
0.110402
0.111127
0.111372
0.111135
0.110411
0.109192
0.10747
0.105234
0.102479
0.0991989
0.0953958
0.0910781
0.0862639
0.0809825
0.0752761
0.0692007
0.062827
0.0562398
0.0495377
0.0428311
0.0362397
0.0298897
0.0239096
0.0184266
0.0135616
0.00942024
0.00607569
0.00354912
0.00180495
0.000744996
0.000216787
3.19827e-05
1.0894e-06
0.0087721
0.025735
0.0415328
0.0559424
0.0689409
0.080626
0.0911205
0.100536
0.108962
0.116473
0.123124
0.128961
0.134025
0.138348
0.141959
0.14488
0.14713
0.148723
0.149665
0.14996
0.149605
0.148591
0.146907
0.144542
0.141482
0.137717
0.13324
0.128054
0.12217
0.115613
0.108425
0.100664
0.0924086
0.0837563
0.0748259
0.0657547
0.0566964
0.0478174
0.0392909
0.0312913
0.0239883
0.0175417
0.0120941
0.00774056
0.00448897
0.00226819
0.000931331
0.000269954
3.9679e-05
1.34514e-06
0.0112237
0.0329717
0.0533832
0.0721332
0.0891268
0.104433
0.118176
0.130486
0.141478
0.151249
0.159881
0.16744
0.173982
0.179555
0.184198
0.187945
0.19082
0.192841
0.194018
0.194355
0.193845
0.192479
0.190241
0.187115
0.183082
0.178128
0.172246
0.165438
0.15772
0.149126
0.13971
0.129552
0.118757
0.107457
0.0958102
0.0840022
0.0722388
0.0607422
0.0497412
0.0394604
0.0301103
0.0218859
0.0149772
0.00951758
0.00548956
0.00276241
0.00113058
0.000326985
4.78053e-05
1.60547e-06
0.013941
0.0409586
0.066472
0.0900519
0.111515
0.130896
0.148306
0.163886
0.177773
0.190091
0.200946
0.210429
0.218618
0.225578
0.231363
0.236017
0.239574
0.242057
0.243478
0.243842
0.243141
0.241361
0.238482
0.234482
0.229338
0.223031
0.215551
0.206901
0.197102
0.1862
0.174265
0.1614
0.147743
0.133464
0.118772
0.103905
0.0891321
0.074741
0.0610247
0.0482612
0.0366899
0.0265129
0.0179953
0.0113518
0.00652586
0.00328414
0.00134416
0.000388966
5.65773e-05
1.8656e-06
0.0168803
0.0495443
0.0805413
0.109328
0.13564
0.159469
0.180892
0.200055
0.217114
0.232217
0.245499
0.257076
0.267051
0.275508
0.28252
0.288144
0.292424
0.295389
0.297056
0.29743
0.2965
0.294249
0.290652
0.285679
0.279303
0.271498
0.262254
0.251574
0.239486
0.226047
0.211347
0.195518
0.17873
0.161202
0.143194
0.12501
0.106989
0.0894935
0.0728954
0.0575343
0.0436542
0.0313502
0.0210727
0.0131831
0.00758953
0.0038457
0.00157912
0.000458882
6.5758e-05
2.19038e-06
0.0199889
0.0585491
0.0952815
0.129532
0.160962
0.189501
0.215189
0.238168
0.258606
0.276675
0.292535
0.306331
0.318191
0.328225
0.336522
0.343157
0.348183
0.35164
0.353548
0.353912
0.352719
0.349949
0.345569
0.339543
0.331838
0.322424
0.311287
0.298432
0.283895
0.267746
0.250097
0.23111
0.210995
0.19002
0.168504
0.146819
0.125381
0.104644
0.0850777
0.0671248
0.0510384
0.0362967
0.0240414
0.0149815
0.00872816
0.00451026
0.00186378
0.000544908
7.77335e-05
1.89796e-06
0.0232058
0.0677749
0.110357
0.150198
0.186889
0.220267
0.250362
0.277293
0.301234
0.322377
0.340905
0.356994
0.370797
0.382448
0.392059
0.399721
0.405502
0.409448
0.411585
0.411918
0.410434
0.407107
0.401898
0.394765
0.385666
0.374569
0.361455
0.346334
0.329248
0.310282
0.289573
0.267314
0.243758
0.219224
0.194092
0.168804
0.143857
0.119799
0.0972279
0.0768196
0.0653599
0.0438902
0.0287805
0.0181979
0.0110481
0.00609561
0.00273587
0.000868223
0.000158755
4.88567e-06
0.0264624
0.0770098
0.125414
0.17084
0.212758
0.250981
0.285519
0.316435
0.343911
0.368154
0.389374
0.40777
0.423524
0.436795
0.447717
0.456398
0.462922
0.467342
0.469692
0.469976
0.468181
0.464274
0.458212
0.449946
0.439426
0.426615
0.411494
0.394074
0.374406
0.352593
0.328793
0.303235
0.276215
0.248104
0.219343
0.190439
0.161962
0.134538
0.108842
0.0855353
0.0712292
0.0474589
0.0302162
0.0191332
0.0120452
0.00679928
0.00302322
0.000949817
0.000158618
5.33998e-06
0.0296834
0.0860355
0.140086
0.190927
0.237933
0.280909
0.31977
0.354589
0.385534
0.412822
0.436683
0.457342
0.475004
0.489856
0.502053
0.511722
0.518959
0.523829
0.526371
0.526591
0.524474
0.519983
0.513068
0.503674
0.491744
0.477237
0.460133
0.440445
0.418233
0.393618
0.366782
0.337988
0.307575
0.275966
0.243661
0.211229
0.179297
0.148546
0.119707
0.093399
0.0765056
0.0500627
0.0315423
0.0202624
0.0131599
0.00740744
0.00324276
0.00102085
0.000172584
6.46873e-06
0.0327893
0.0946359
0.15402
0.209984
0.261834
0.30927
0.352224
0.390776
0.425031
0.455223
0.481604
0.504418
0.523898
0.54025
0.553654
0.564254
0.572159
0.577446
0.580157
0.580302
0.577863
0.572801
0.565058
0.554573
0.541286
0.525148
0.506139
0.484277
0.459631
0.432336
0.402603
0.370724
0.337083
0.302152
0.266488
0.230721
0.195536
0.161659
0.12985
0.100835
0.0825012
0.0536447
0.0340972
0.0223445
0.0146159
0.00712163
0.00296579
0.00101287
0.000181926
9.35165e-06
0.0356987
0.102602
0.166882
0.227544
0.283839
0.335374
0.382122
0.42409
0.461401
0.494277
0.522985
0.54779
0.568946
0.58668
0.601193
0.612644
0.621157
0.626818
0.629673
0.629736
0.626988
0.621384
0.612863
0.601358
0.586802
0.569144
0.548363
0.524481
0.497576
0.467799
0.435384
0.400657
0.364039
0.32605
0.287304
0.24849
0.210359
0.173701
0.139337
0.108113
0.0885904
0.0582469
0.0375022
0.0248583
0.0161321
0.00749398
0.00354242
0.00113862
0.00023997
1.55233e-05
0.0383319
0.109738
0.178365
0.243194
0.303433
0.358646
0.408709
0.453695
0.493738
0.529009
0.559789
0.586367
0.609014
0.627976
0.64347
0.655673
0.664719
0.670704
0.673678
0.673657
0.670622
0.664523
0.655297
0.642869
0.62717
0.608145
0.585773
0.56008
0.531152
0.499156
0.464348
0.427081
0.387815
0.347114
0.305639
0.264138
0.223426
0.184362
0.147846
0.114782
0.0939187
0.0625555
0.0404969
0.0268735
0.0172903
0.00809638
0.00375603
0.00114486
0.000287217
1.9697e-05
0.0406144
0.11587
0.188197
0.256567
0.320156
0.378492
0.43138
0.478922
0.52126
0.558578
0.591125
0.619209
0.643122
0.663125
0.67945
0.692286
0.701779
0.70803
0.711097
0.710995
0.707703
0.701172
0.691332
0.678107
0.661421
0.641219
0.617479
0.590231
0.55957
0.525675
0.488822
0.44939
0.407871
0.364869
0.321086
0.27732
0.234435
0.19335
0.155031
0.120405
0.0980749
0.0657734
0.0425261
0.0281371
0.0181037
0.00870563
0.00400672
0.00130417
0.000275948
1.05212e-05
0.0424807
0.120846
0.196148
0.267358
0.333631
0.394468
0.449641
0.499188
0.543342
0.582295
0.616257
0.645545
0.670466
0.691297
0.70828
0.721616
0.731459
0.737915
0.741046
0.740869
0.737362
0.730473
0.720129
0.706252
0.688762
0.667603
0.642753
0.614246
0.582184
0.546758
0.508259
0.467089
0.423765
0.378924
0.333305
0.287742
0.243138
0.200446
0.160662
0.124763
0.101293
0.0681532
0.0439699
0.0290522
0.0188244
0.00911699
0.00423499
0.0014277
0.000182303
6.4464e-07
0.0438776
0.124548
0.202043
0.275335
0.343569
0.406231
0.463074
0.514092
0.559524
0.599634
0.634634
0.664795
0.690445
0.71187
0.729324
0.743015
0.753102
0.759698
0.762866
0.762623
0.758947
0.751783
0.741059
0.726692
0.708601
0.686729
0.661055
0.631615
0.598518
0.561963
0.522255
0.479811
0.43517
0.388991
0.342042
0.295186
0.249354
0.20552
0.164694
0.127867
0.103709
0.0701527
0.0452853
0.0299095
0.019476
0.00939736
0.00450452
0.00161702
0.000264319
1e-15
0.0447763
0.126925
0.205818
0.280429
0.349896
0.413698
0.471578
0.523512
0.569701
0.610497
0.646128
0.676823
0.702912
0.724694
0.742426
0.756324
0.766551
0.773221
0.776399
0.776103
0.772308
0.764961
0.753987
0.7393
0.72082
0.698489
0.672287
0.642252
0.608497
0.571228
0.530758
0.487515
0.442054
0.395046
0.347279
0.299633
0.253062
0.20856
0.167158
0.129867
0.105174
0.0717526
0.0464711
0.030664
0.0199037
0.00968153
0.00475169
0.00177335
0.000399641
1.60567e-06
0.0451513
0.127916
0.207384
0.282519
0.352459
0.416684
0.474938
0.527191
0.573628
0.614622
0.650445
0.681315
0.70754
0.729425
0.747235
0.761185
0.771441
0.778119
0.781282
0.780947
0.777091
0.769659
0.758574
0.74375
0.725106
0.702584
0.676166
0.645891
0.611874
0.574325
0.533561
0.490017
0.44425
0.396941
0.348884
0.300966
0.254148
0.209436
0.167865
0.130442
0.105472
0.072552
0.0470694
0.0310505
0.0200684
0.00985459
0.00473776
0.00183459
0.000539518
0.000151093
0.0449959
0.127505
0.206705
0.281553
0.351192
0.415107
0.473051
0.525002
0.571162
0.611902
0.647485
0.67814
0.704183
0.725913
0.743594
0.757439
0.767614
0.774232
0.777355
0.777
0.773142
0.765726
0.754674
0.7399
0.721324
0.698888
0.672574
0.642423
0.608549
0.571164
0.530583
0.487241
0.441695
0.394621
0.346809
0.299143
0.252577
0.208115
0.166793
0.129612
0.104286
0.0721902
0.0468253
0.0308621
0.0198921
0.00976099
0.00465157
0.00177375
0.00047696
6.24528e-05
0.0443133
0.125692
0.203778
0.277523
0.346081
0.408951
0.465903
0.516938
0.562303
0.602309
0.63722
0.667291
0.692839
0.714159
0.731505
0.74509
0.755072
0.761562
0.764621
0.764262
0.76046
0.753159
0.742282
0.727745
0.709467
0.68739
0.661499
0.631833
0.598506
0.561727
0.521805
0.47917
0.434367
0.388063
0.341033
0.294144
0.248331
0.204574
0.163893
0.127278
0.102069
0.0707873
0.0457747
0.0301592
0.0194439
0.0094853
0.00445465
0.00161012
0.000371934
1.06897e-05
0.0431212
0.12252
0.19867
0.270519
0.337241
0.398358
0.453665
0.50321
0.54726
0.586076
0.619903
0.649042
0.673802
0.694468
0.711287
0.724462
0.734146
0.740445
0.743415
0.743067
0.739375
0.732284
0.721718
0.707593
0.689832
0.668378
0.643214
0.614381
0.581989
0.54624
0.507436
0.465993
0.42244
0.377424
0.331696
0.286096
0.241531
0.198949
0.159332
0.123662
0.0988409
0.0687335
0.0444125
0.0292362
0.01881
0.00908801
0.00422307
0.00146267
0.000370928
2.71228e-05
0.0414307
0.118008
0.19141
0.260582
0.324729
0.383402
0.436434
0.483954
0.526162
0.563319
0.595681
0.623558
0.64725
0.667032
0.683137
0.69576
0.705044
0.711089
0.713946
0.713623
0.710094
0.703303
0.693178
0.679637
0.662605
0.642027
0.617888
0.590225
0.559145
0.524841
0.487602
0.447825
0.406018
0.362797
0.318881
0.275075
0.232249
0.191313
0.153216
0.118907
0.0948428
0.0664301
0.0429673
0.0282847
0.0181083
0.00860169
0.00400597
0.0013528
0.000304967
1.84235e-05
0.0392956
0.112272
0.18217
0.24794
0.308825
0.364418
0.414627
0.459577
0.499483
0.534563
0.565109
0.591425
0.613798
0.632486
0.647712
0.659653
0.668447
0.674181
0.676903
0.676617
0.673298
0.666891
0.657326
0.644524
0.628415
0.608946
0.586102
0.559918
0.530496
0.498015
0.462751
0.425076
0.385469
0.344511
0.302879
0.261332
0.220696
0.181836
0.145634
0.11296
0.0901337
0.0635744
0.0411839
0.027232
0.0173709
0.00808354
0.00375002
0.00115336
0.000257903
1.58867e-05
0.0367768
0.105451
0.171162
0.232876
0.289882
0.341825
0.388721
0.430651
0.467817
0.500469
0.528898
0.553395
0.574231
0.591648
0.605849
0.616999
0.625222
0.630596
0.633163
0.632926
0.629857
0.623906
0.615003
0.603078
0.588061
0.569905
0.548595
0.524163
0.496702
0.46638
0.433452
0.398264
0.36126
0.322979
0.284051
0.245182
0.207143
0.170753
0.136902
0.106407
0.0840692
0.0597439
0.0387331
0.0255594
0.016327
0.00752899
0.00351634
0.00114777
0.000190864
5.08781e-06
0.0339469
0.0977144
0.158647
0.21574
0.268346
0.316204
0.359309
0.397829
0.431922
0.46186
0.487926
0.510395
0.529519
0.545518
0.558577
0.568845
0.576431
0.581404
0.5838
0.583618
0.580832
0.575394
0.56724
0.556302
0.542519
0.525845
0.506266
0.483811
0.458565
0.430682
0.400393
0.368015
0.333952
0.298698
0.262829
0.226993
0.191892
0.158263
0.126868
0.098532
0.0778057
0.0549994
0.0353118
0.0232139
0.0149812
0.00701035
0.00298328
0.00103491
0.000187187
7.66468e-06
0.0308853
0.0892535
0.144924
0.19694
0.244721
0.288124
0.327141
0.361924
0.392689
0.419698
0.44322
0.463507
0.480788
0.495261
0.507092
0.516409
0.523306
0.527846
0.530055
0.529932
0.527452
0.522569
0.515226
0.50536
0.492916
0.477852
0.460155
0.43985
0.417014
0.391784
0.364367
0.335047
0.304189
0.272235
0.239707
0.207192
0.175333
0.144805
0.116327
0.0905864
0.0713358
0.0505136
0.0320447
0.0207077
0.0134215
0.00743029
0.00313783
0.00103748
0.000177545
6.69315e-06
0.0276748
0.0802774
0.130329
0.176939
0.21963
0.258274
0.292967
0.323836
0.351117
0.375065
0.39593
0.41394
0.429298
0.442179
0.452724
0.461044
0.467219
0.471301
0.473311
0.473247
0.471084
0.466781
0.460287
0.451546
0.440508
0.427136
0.411419
0.393377
0.373078
0.350643
0.326254
0.30016
0.272683
0.244215
0.215217
0.186213
0.157787
0.130559
0.105147
0.0822585
0.0663952
0.0472572
0.029879
0.0190393
0.0121289
0.00687618
0.0030398
0.000941872
0.000153459
5.62427e-06
0.0243973
0.0710056
0.115217
0.156218
0.193658
0.227442
0.257678
0.284548
0.308284
0.329124
0.347292
0.362992
0.376399
0.38766
0.396895
0.404197
0.409632
0.413242
0.415043
0.415033
0.413188
0.409472
0.40384
0.396243
0.386638
0.374992
0.361296
0.345566
0.327862
0.308286
0.286996
0.264208
0.240198
0.215307
0.189936
0.164545
0.139655
0.115846
0.0938026
0.0742007
0.059101
0.0444088
0.0286015
0.0180633
0.0112186
0.0062465
0.00280071
0.000863743
0.000142565
4.62334e-06
0.0211314
0.0616627
0.0999626
0.135316
0.167453
0.196368
0.222175
0.24508
0.265308
0.283076
0.298582
0.312
0.323475
0.333131
0.341065
0.347352
0.352046
0.355179
0.356765
0.3568
0.355262
0.352122
0.347339
0.340874
0.332687
0.322754
0.311063
0.297631
0.282505
0.265774
0.24757
0.228075
0.207523
0.186203
0.164455
0.142667
0.121277
0.100779
0.0817515
0.0648063
0.0494921
0.0351759
0.0231196
0.0143628
0.00854085
0.00438687
0.00178829
0.000532187
6.97361e-05
1.99542e-06
0.0179495
0.0524686
0.084932
0.11474
0.141694
0.165857
0.187373
0.206452
0.223302
0.238116
0.251062
0.262281
0.271894
0.279997
0.286668
0.291967
0.295936
0.298599
0.299967
0.300035
0.298786
0.296193
0.292224
0.286845
0.280026
0.271743
0.261988
0.250776
0.238145
0.224167
0.208952
0.19265
0.175455
0.157604
0.139381
0.121106
0.103133
0.0858386
0.0696328
0.055017
0.041995
0.0300275
0.0201504
0.0127337
0.00736044
0.00372312
0.00153967
0.0004373
6.27515e-05
2.12244e-06
0.0149165
0.0436321
0.0704765
0.0949698
0.116998
0.136662
0.154139
0.169627
0.183315
0.195363
0.205909
0.215066
0.222926
0.229564
0.23504
0.2394
0.242676
0.244886
0.246037
0.246126
0.245138
0.243051
0.23984
0.235478
0.229938
0.223203
0.215268
0.206141
0.195857
0.184471
0.172073
0.158783
0.144757
0.130186
0.115296
0.100349
0.0856311
0.0714329
0.0580279
0.045749
0.0348113
0.0251177
0.0170388
0.010795
0.00622238
0.00312981
0.00128446
0.000369174
5.38171e-05
1.81815e-06
0.0120898
0.0353451
0.0569259
0.076464
0.0939348
0.109469
0.123254
0.135471
0.146279
0.155809
0.164167
0.171438
0.177691
0.182982
0.187356
0.190846
0.193475
0.195259
0.196201
0.196298
0.195539
0.193907
0.191382
0.187942
0.183568
0.178245
0.17197
0.16475
0.156611
0.147597
0.137779
0.127251
0.116133
0.104576
0.0927541
0.0808696
0.0691475
0.0578207
0.0470889
0.0371741
0.0282934
0.0205228
0.0140214
0.00891185
0.00514352
0.00258692
0.00105821
0.000304983
4.4592e-05
1.50726e-06
0.00951772
0.0277738
0.0445615
0.0596238
0.0730072
0.0848674
0.0953822
0.104709
0.112973
0.120276
0.126694
0.132288
0.137108
0.141194
0.144578
0.147283
0.149327
0.15072
0.151465
0.15156
0.150996
0.14976
0.147837
0.145211
0.141867
0.137794
0.13299
0.127461
0.121225
0.114319
0.106793
0.0987209
0.0901936
0.0813241
0.0722441
0.0631033
0.0540688
0.0453195
0.037014
0.029306
0.0223618
0.0162911
0.0111948
0.00714714
0.004138
0.00208623
0.000854029
0.000246444
3.60664e-05
1.21921e-06
0.00723858
0.0210508
0.0336074
0.0447595
0.0546045
0.0633067
0.0710226
0.0778776
0.0839661
0.0893582
0.0941073
0.0982551
0.101835
0.104874
0.107395
0.109414
0.110943
0.11199
0.112556
0.112641
0.112237
0.111335
0.109925
0.107994
0.105532
0.102531
0.0989898
0.0949124
0.0903135
0.0852187
0.0796663
0.0737089
0.0674138
0.0608633
0.0541533
0.0473916
0.0406967
0.034197
0.028014
0.0222595
0.0170496
0.0124796
0.0086249
0.00553705
0.00322136
0.00163095
0.000669611
0.000193605
2.83582e-05
9.58608e-07
0.00527976
0.0152724
0.0242263
0.0320896
0.0389904
0.0450822
0.050491
0.0553083
0.0595983
0.0634069
0.0667682
0.0697089
0.0722506
0.0744113
0.0762055
0.0776448
0.0787372
0.0794878
0.0798984
0.0799673
0.0796903
0.0790611
0.0780718
0.0767145
0.0749819
0.0728688
0.0703738
0.0675005
0.0642592
0.0606678
0.0567534
0.052553
0.0481135
0.0434923
0.0387564
0.0339808
0.0292464
0.0246404
0.020249
0.0161519
0.0124274
0.00914514
0.00636033
0.00411081
0.00240739
0.00122627
0.000505904
0.000146743
2.15232e-05
7.2755e-07
0.00365615
0.0104923
0.0165081
0.0217284
0.0262894
0.030318
0.0339047
0.0371092
0.0399711
0.0425176
0.0447689
0.0467412
0.0484478
0.0498999
0.0511069
0.0520763
0.0528134
0.0533215
0.0536017
0.0536532
0.0534732
0.0530574
0.0524008
0.0514982
0.0503448
0.0489373
0.0472748
0.0453598
0.0431993
0.0408053
0.0381959
0.0353956
0.0324358
0.0293541
0.0261948
0.0230075
0.0198452
0.016764
0.0138206
0.0110684
0.008558
0.00633523
0.00443751
0.00289133
0.00170782
0.000877276
0.000364557
0.000106278
1.56228e-05
5.28143e-07
0.00236848
0.0067177
0.0104613
0.0136727
0.0164736
0.0189544
0.0211717
0.0231596
0.0249396
0.0265263
0.0279309
0.0291625
0.030229
0.0311371
0.0318924
0.0324996
0.0329619
0.0332814
0.0334588
0.0334937
0.0333843
0.0331281
0.0327221
0.0321629
0.0314476
0.0305744
0.0295428
0.0283542
0.0270132
0.0255272
0.0239075
0.0221693
0.0203321
0.0184191
0.0164576
0.014478
0.012513
0.0105966
0.00876324
0.00704591
0.00547525
0.00407885
0.0028796
0.00189415
0.00113104
0.000587737
0.000246874
7.2547e-05
1.07041e-05
3.61985e-07
0.0014033
0.003911
0.00601381
0.00780227
0.00936523
0.0107565
0.0120055
0.0131287
0.0141363
0.0150357
0.0158324
0.0165314
0.0171369
0.0176526
0.0180818
0.018427
0.0186901
0.0188723
0.0189741
0.0189951
0.0189344
0.0187906
0.0185621
0.0182469
0.0178435
0.0173508
0.0167686
0.0160977
0.0153408
0.014502
0.0135878
0.0126068
0.0115699
0.0104903
0.00938319
0.00826574
0.00715622
0.00607359
0.00503697
0.00406475
0.00317386
0.00237939
0.00169376
0.00112607
0.000681387
0.000359596
0.000153476
4.56955e-05
6.78686e-06
2.29707e-07
0.000732635
0.00198844
0.00301262
0.00388169
0.00464602
0.00533048
0.00594728
0.00650311
0.00700228
0.00744803
0.00784302
0.00818961
0.00848988
0.00874569
0.00895861
0.00912994
0.00926062
0.00935124
0.00940205
0.0094129
0.00938333
0.00931265
0.00920003
0.00904459
0.00884553
0.00860233
0.00831488
0.00798366
0.00760991
0.00719578
0.00674442
0.00626011
0.00574825
0.00521535
0.00466891
0.00411732
0.0035696
0.00303504
0.00252298
0.00204239
0.00160152
0.00120761
0.000866542
0.000582523
0.000357853
0.000192622
8.41556e-05
2.56195e-05
3.85399e-06
1.30718e-07
0.000314715
0.000821151
0.00122519
0.00157047
0.00187683
0.00215251
0.00240145
0.00262595
0.00282761
0.00300768
0.00316724
0.00330724
0.00342853
0.00353186
0.00361787
0.0036871
0.00373993
0.0037766
0.00379721
0.0038017
0.00378989
0.0037615
0.00371619
0.00365361
0.00357345
0.00347549
0.00335969
0.00322626
0.00307568
0.00290884
0.00272701
0.00253191
0.00232574
0.00211111
0.00189105
0.00166893
0.00144836
0.00123309
0.00102686
0.000833245
0.000655552
0.000496642
0.000358811
0.000243657
0.000151975
8.36824e-05
3.7749e-05
1.19344e-05
1.84511e-06
6.29587e-08
9.63e-05
0.000238451
0.000351589
0.000449625
0.000537164
0.000616071
0.000687335
0.000751588
0.000809287
0.000860797
0.000906431
0.000946465
0.000981145
0.00101069
0.00103528
0.00105508
0.00107019
0.00108068
0.00108659
0.00108789
0.00108452
0.00107642
0.00106349
0.00104561
0.00102271
0.000994725
0.000961636
0.000923503
0.000880472
0.000832792
0.00078083
0.000725081
0.00066617
0.000604848
0.000541982
0.000478532
0.000415533
0.000354052
0.000295153
0.000239861
0.000189111
0.000143716
0.00010432
7.13653e-05
4.50571e-05
2.53345e-05
1.18519e-05
3.9706e-06
6.5308e-07
2.27114e-08
1.48119e-05
3.49838e-05
5.13744e-05
6.56845e-05
7.84671e-05
8.99823e-05
0.000100376
0.000109744
0.000118154
0.00012566
0.000132309
0.000138141
0.000143192
0.000147495
0.000151077
0.000153961
0.000156161
0.00015769
0.00015855
0.000158739
0.000158249
0.000157068
0.000155183
0.000152577
0.000149238
0.000145156
0.00014033
0.000134768
0.000128491
0.000121535
0.000113954
0.000105821
9.72272e-05
8.82822e-05
7.91128e-05
6.98592e-05
6.06724e-05
5.17082e-05
4.3122e-05
3.50628e-05
2.76672e-05
2.10528e-05
1.53131e-05
1.05115e-05
6.67667e-06
3.79832e-06
1.8225e-06
6.47478e-07
1.20043e-07
4.52207e-09
5.00214e-07
1.18684e-06
1.74217e-06
2.22603e-06
2.65797e-06
3.04695e-06
3.39799e-06
3.71431e-06
3.99824e-06
4.25162e-06
4.47602e-06
4.67283e-06
4.8433e-06
4.9885e-06
5.10936e-06
5.20664e-06
5.2809e-06
5.33246e-06
5.36147e-06
5.36784e-06
5.35126e-06
5.31136e-06
5.24763e-06
5.15956e-06
5.04668e-06
4.90869e-06
4.74551e-06
4.55742e-06
4.34511e-06
4.10981e-06
3.85334e-06
3.57817e-06
3.28741e-06
2.98478e-06
2.67458e-06
2.36154e-06
2.05079e-06
1.74761e-06
1.45726e-06
1.18478e-06
9.34796e-07
7.11286e-07
5.17402e-07
3.5527e-07
2.25832e-07
1.28722e-07
6.21027e-08
2.2449e-08
4.477e-09
2.86905e-10
5.71558e-07
1.59537e-10
8.43206e-09
1e-15
1e-15
1.07738e-11
1e-15
2.33592e-13
1.14737e-15
1e-15
1e-15
1e-15
2.24967e-15
1e-15
2.13584e-12
1.69511e-13
3.21394e-11
5.00134e-10
2.95471e-09
1.37737e-07
1.51682e-05
1e-15
5.99799e-07
1e-15
1e-15
3.3543e-10
1e-15
1.142e-11
1e-15
1e-15
1e-15
1.01807e-13
1e-15
1e-15
1.55628e-10
1e-15
6.97044e-09
2.61684e-08
4.07081e-07
1.21641e-05
6.15473e-06
1e-15
9.92997e-08
1e-15
1e-15
9.44885e-11
1e-15
1.88118e-12
1e-15
1e-15
1e-15
2.41841e-14
1e-15
1e-15
2.57077e-11
1e-15
1.63028e-09
6.20712e-09
9.39605e-08
3.01082e-06
2.80787e-10
4.37917e-09
2.19031e-08
6.02551e-08
1.23741e-07
2.14363e-07
3.31961e-07
4.74469e-07
6.38239e-07
8.18413e-07
1.00934e-06
1.205e-06
1.39944e-06
1.58713e-06
1.76323e-06
1.92386e-06
2.06617e-06
2.1884e-06
2.28983e-06
2.37071e-06
2.43208e-06
2.47563e-06
2.50351e-06
2.51816e-06
2.52214e-06
2.51803e-06
2.50825e-06
2.49506e-06
2.48046e-06
2.46623e-06
2.45388e-06
2.44473e-06
2.43992e-06
2.4405e-06
2.44738e-06
2.46145e-06
2.48358e-06
2.51462e-06
2.55545e-06
2.60693e-06
2.66992e-06
2.74519e-06
2.83343e-06
2.9351e-06
3.05035e-06
3.1789e-06
3.31998e-06
3.4722e-06
3.63358e-06
3.80161e-06
3.97344e-06
4.14601e-06
4.31631e-06
4.48154e-06
4.63924e-06
4.78739e-06
4.92447e-06
5.04943e-06
5.16176e-06
5.26136e-06
5.34849e-06
5.42373e-06
5.48786e-06
5.54182e-06
5.58664e-06
5.62338e-06
5.6531e-06
5.67677e-06
5.69535e-06
5.70966e-06
5.72045e-06
5.72836e-06
5.73394e-06
5.73761e-06
5.73971e-06
5.74049e-06
5.7401e-06
5.73861e-06
5.73603e-06
5.73231e-06
5.72734e-06
5.72097e-06
5.71298e-06
5.70314e-06
5.69117e-06
5.67677e-06
5.65963e-06
5.63946e-06
5.61596e-06
5.5889e-06
5.55809e-06
5.52345e-06
5.485e-06
5.44299e-06
5.3979e-06
5.35063e-06
5.30268e-06
5.25652e-06
5.21627e-06
5.18911e-06
4.42682e-09
1.17456e-07
6.31954e-07
1.76936e-06
3.65627e-06
6.35132e-06
9.84943e-06
1.40887e-05
1.89602e-05
2.4319e-05
2.99967e-05
3.58142e-05
4.15943e-05
4.71723e-05
5.24047e-05
5.71759e-05
6.14015e-05
6.50293e-05
6.80384e-05
7.04362e-05
7.22539e-05
7.35421e-05
7.43647e-05
7.47944e-05
7.49077e-05
7.47809e-05
7.44863e-05
7.40907e-05
7.36542e-05
7.32291e-05
7.28603e-05
7.25871e-05
7.24435e-05
7.24602e-05
7.26648e-05
7.30834e-05
7.37417e-05
7.46656e-05
7.58807e-05
7.74128e-05
7.92872e-05
8.15276e-05
8.41539e-05
8.718e-05
9.06105e-05
9.44375e-05
9.86375e-05
0.000103169
0.000107974
0.000112977
0.000118093
0.000123231
0.000128301
0.00013322
0.000137914
0.000142324
0.000146404
0.000150124
0.000153467
0.000156431
0.000159025
0.000161264
0.000163173
0.000164779
0.000166113
0.000167207
0.000168092
0.000168797
0.00016935
0.000169776
0.000170098
0.000170334
0.0001705
0.00017061
0.000170673
0.000170696
0.000170685
0.00017064
0.000170564
0.000170453
0.000170305
0.000170116
0.000169878
0.000169585
0.000169229
0.0001688
0.00016829
0.000167689
0.00016699
0.000166185
0.000165268
0.000164237
0.000163093
0.000161843
0.000160501
0.000159094
0.000157666
0.000156291
0.000155091
0.000154277
2.22721e-08
6.40107e-07
3.8827e-06
1.15311e-05
2.44487e-05
4.29876e-05
6.70889e-05
9.63119e-05
0.000129894
0.000166824
0.000205935
0.000245986
0.000285751
0.000324094
0.000360028
0.00039276
0.000421711
0.000446529
0.000467076
0.000483407
0.000495744
0.000504441
0.000509941
0.00051275
0.000513396
0.000512405
0.000510275
0.000507468
0.000504395
0.000501414
0.000498834
0.000496923
0.000495912
0.000496013
0.000497414
0.000500294
0.00050483
0.000511199
0.000519579
0.000530147
0.000543079
0.000558539
0.000576666
0.00059756
0.000621253
0.000647694
0.000676722
0.000708053
0.000741276
0.000775875
0.000811253
0.000846781
0.000881834
0.000915835
0.000948279
0.000978747
0.00100693
0.00103262
0.00105571
0.00107617
0.00109408
0.00110954
0.00112271
0.0011338
0.00114302
0.00115057
0.00115668
0.00116156
0.00116538
0.00116833
0.00117055
0.00117219
0.00117334
0.0011741
0.00117454