/*--------------------------------*- C++ -*----------------------------------*\
| =========                 |                                                 |
| \\      /  F ield         | foam-extend: Open Source CFD                    |
|  \\    /   O peration     | Version:     4.0                                |
|   \\  /    A nd           | Web:         http://www.foam-extend.org         |
|    \\/     M anipulation  |                                                 |
\*---------------------------------------------------------------------------*/
FoamFile
{
    version     2.0;
    format      ascii;
    class       volScalarField;
    location    "0.001";
    object      nut;
}
// * * * * * * * * * * * * * * * * * * * * * * * * * * * * * * * * * * * * * //

dimensions      [0 2 -1 0 0 0 0];

internalField   nonuniform List<scalar> 
28770
(
2.15141e-14
5.27313e-14
7.92524e-14
1.03412e-13
1.25506e-13
1.45894e-13
1.64638e-13
1.81798e-13
1.97412e-13
2.11512e-13
2.24132e-13
2.35311e-13
2.45089e-13
2.53506e-13
2.60605e-13
2.66422e-13
2.70992e-13
2.74341e-13
2.7649e-13
2.77449e-13
2.77222e-13
2.75802e-13
2.73179e-13
2.69338e-13
2.64263e-13
2.5794e-13
2.50361e-13
2.4153e-13
2.31465e-13
2.20206e-13
2.07816e-13
1.94387e-13
1.8004e-13
1.64929e-13
1.49237e-13
1.3318e-13
1.16996e-13
1.00949e-13
8.53115e-14
7.03652e-14
5.63847e-14
4.36275e-14
3.23203e-14
2.26447e-14
1.47239e-14
8.61135e-15
4.27943e-15
1.6047e-15
3.38127e-16
2.39079e-17
4.51923e-12
9.27254e-12
1.37125e-11
1.78528e-11
2.16564e-11
2.51678e-11
2.83971e-11
3.13537e-11
3.40439e-11
3.64732e-11
3.86476e-11
4.05737e-11
4.22582e-11
4.37084e-11
4.49312e-11
4.59332e-11
4.67201e-11
4.72966e-11
4.76661e-11
4.78305e-11
4.77904e-11
4.75446e-11
4.70913e-11
4.6428e-11
4.55517e-11
4.44602e-11
4.31521e-11
4.1628e-11
3.98912e-11
3.79485e-11
3.58108e-11
3.3494e-11
3.1019e-11
2.84123e-11
2.57058e-11
2.29364e-11
2.01456e-11
1.73785e-11
1.46825e-11
1.21059e-11
9.69615e-12
7.49771e-12
5.5496e-12
3.88307e-12
2.51925e-12
1.46699e-12
7.20486e-13
2.56335e-13
3.78775e-14
3.75442e-16
1.19243e-10
2.00883e-10
2.82618e-10
3.63197e-10
4.38982e-10
5.09438e-10
5.74408e-10
6.33947e-10
6.88139e-10
7.37083e-10
7.80892e-10
8.19695e-10
8.53629e-10
8.82837e-10
9.0746e-10
9.27627e-10
9.43455e-10
9.55036e-10
9.62437e-10
9.65696e-10
9.64822e-10
9.59793e-10
9.50568e-10
9.37097e-10
9.1932e-10
8.9719e-10
8.70679e-10
8.398e-10
8.04622e-10
7.65281e-10
7.22002e-10
6.75105e-10
6.25017e-10
5.72275e-10
5.17525e-10
4.61517e-10
4.05092e-10
3.49161e-10
2.94684e-10
2.4264e-10
1.93986e-10
1.49617e-10
1.10316e-10
7.66992e-11
4.91632e-11
2.78368e-11
1.26055e-11
3.44834e-12
2.72546e-13
1.78282e-15
1.17815e-09
1.65438e-09
2.17529e-09
2.72299e-09
3.25869e-09
3.76629e-09
4.2386e-09
4.6732e-09
5.06952e-09
5.42778e-09
5.74858e-09
6.03275e-09
6.28125e-09
6.4951e-09
6.6753e-09
6.8228e-09
6.93844e-09
7.02288e-09
7.0766e-09
7.09985e-09
7.09269e-09
7.05494e-09
6.98629e-09
6.88634e-09
6.75466e-09
6.59089e-09
6.39481e-09
6.16654e-09
5.90656e-09
5.61591e-09
5.29624e-09
4.94994e-09
4.58016e-09
4.1909e-09
3.78693e-09
3.37379e-09
2.95769e-09
2.54536e-09
2.14385e-09
1.76036e-09
1.40187e-09
1.07487e-09
7.84922e-10
5.36316e-10
3.31882e-10
1.73748e-10
6.59645e-11
1.31333e-11
7.76843e-13
4.73755e-15
6.61788e-09
8.16201e-09
1.00571e-08
1.21756e-08
1.43383e-08
1.64439e-08
1.84348e-08
2.02832e-08
2.19771e-08
2.35124e-08
2.48891e-08
2.61094e-08
2.71769e-08
2.80955e-08
2.88693e-08
2.95022e-08
2.99977e-08
3.03585e-08
3.05867e-08
3.06832e-08
3.06481e-08
3.04806e-08
3.01793e-08
2.97423e-08
2.91677e-08
2.84538e-08
2.75998e-08
2.66061e-08
2.54747e-08
2.42103e-08
2.28199e-08
2.13141e-08
1.97066e-08
1.80147e-08
1.62591e-08
1.4464e-08
1.26561e-08
1.08645e-08
9.1196e-09
7.45195e-09
5.89131e-09
4.46511e-09
3.19734e-09
2.10891e-09
1.22178e-09
5.67377e-10
1.79054e-10
2.94766e-11
1.58552e-12
9.49416e-15
2.57471e-08
2.92885e-08
3.42244e-08
4.00593e-08
4.62582e-08
5.24711e-08
5.84653e-08
6.41045e-08
6.93153e-08
7.40624e-08
7.83325e-08
8.21245e-08
8.54448e-08
8.8303e-08
9.07103e-08
9.26779e-08
9.42159e-08
9.53324e-08
9.60329e-08
9.63201e-08
9.6194e-08
9.56513e-08
9.46874e-08
9.3296e-08
9.14708e-08
8.92061e-08
8.64991e-08
8.33508e-08
7.97679e-08
7.57644e-08
7.13633e-08
6.6597e-08
6.15092e-08
5.61542e-08
5.05973e-08
4.49138e-08
3.91875e-08
3.35086e-08
2.79715e-08
2.26712e-08
1.77014e-08
1.3153e-08
9.11779e-09
5.70029e-09
3.03324e-09
1.25067e-09
3.47376e-10
5.23306e-11
2.72052e-12
1.61582e-14
7.77316e-08
8.4413e-08
9.47454e-08
1.07606e-07
1.21757e-07
1.36333e-07
1.50696e-07
1.64419e-07
1.77239e-07
1.89005e-07
1.99642e-07
2.09118e-07
2.17432e-07
2.24597e-07
2.30633e-07
2.35563e-07
2.39411e-07
2.42193e-07
2.43922e-07
2.44603e-07
2.44233e-07
2.42803e-07
2.403e-07
2.36706e-07
2.32004e-07
2.2618e-07
2.19223e-07
2.11136e-07
2.01936e-07
1.91658e-07
1.80358e-07
1.6812e-07
1.55053e-07
1.41295e-07
1.2701e-07
1.12388e-07
9.76413e-08
8.29962e-08
6.86934e-08
5.4983e-08
4.21282e-08
3.04176e-08
2.01907e-08
1.1854e-08
5.80882e-09
2.18942e-09
5.65084e-10
8.17037e-11
4.18308e-12
2.47222e-14
1.95735e-07
2.07133e-07
2.2563e-07
2.49875e-07
2.77383e-07
3.06415e-07
3.35597e-07
3.63927e-07
3.90718e-07
4.15531e-07
4.38108e-07
4.58316e-07
4.761e-07
4.91453e-07
5.04398e-07
5.1497e-07
5.23203e-07
5.29129e-07
5.32766e-07
5.3412e-07
5.33179e-07
5.29921e-07
5.24309e-07
5.16302e-07
5.05859e-07
4.92942e-07
4.77529e-07
4.59621e-07
4.39249e-07
4.16487e-07
3.91458e-07
3.64338e-07
3.35365e-07
3.04834e-07
2.73103e-07
2.40584e-07
2.07741e-07
1.75084e-07
1.43172e-07
1.12628e-07
8.41723e-08
5.86646e-08
3.71127e-08
2.05132e-08
9.4093e-09
3.34313e-09
8.28601e-10
1.17341e-10
5.95692e-12
3.51026e-14
4.3014e-07
4.4821e-07
4.78408e-07
5.19262e-07
5.66759e-07
6.17927e-07
6.70283e-07
7.21879e-07
7.71278e-07
8.17482e-07
8.59842e-07
8.97969e-07
9.31655e-07
9.60815e-07
9.85432e-07
1.00553e-06
1.02115e-06
1.03233e-06
1.03908e-06
1.0414e-06
1.03925e-06
1.03257e-06
1.02128e-06
1.0053e-06
9.84514e-07
9.58855e-07
9.28265e-07
8.92732e-07
8.52311e-07
8.07134e-07
7.57428e-07
7.0353e-07
6.45892e-07
5.85089e-07
5.21818e-07
4.56901e-07
3.91289e-07
3.26073e-07
2.6252e-07
2.0214e-07
1.46756e-07
9.84922e-08
5.95051e-08
3.12707e-08
1.3675e-08
4.68157e-09
1.13386e-09
1.58698e-10
8.0133e-12
4.71491e-14
8.50426e-07
8.78366e-07
9.24541e-07
9.87674e-07
1.0625e-06
1.14451e-06
1.22971e-06
1.31482e-06
1.39727e-06
1.47514e-06
1.54711e-06
1.61228e-06
1.67013e-06
1.72035e-06
1.76283e-06
1.79751e-06
1.82438e-06
1.84347e-06
1.85474e-06
1.85816e-06
1.85363e-06
1.841e-06
1.82011e-06
1.79077e-06
1.75277e-06
1.70595e-06
1.65017e-06
1.5854e-06
1.5117e-06
1.42929e-06
1.33853e-06
1.24003e-06
1.13457e-06
1.02321e-06
9.07226e-07
7.88212e-07
6.68066e-07
5.49084e-07
4.34054e-07
3.26348e-07
2.29901e-07
1.48825e-07
8.6407e-08
4.36719e-08
1.84768e-08
6.17759e-09
1.47534e-09
2.04999e-10
1.03098e-11
6.05654e-14
1.54359e-06
1.58754e-06
1.65575e-06
1.74615e-06
1.85557e-06
1.97729e-06
2.10541e-06
2.23492e-06
2.3617e-06
2.48255e-06
2.5951e-06
2.69768e-06
2.78916e-06
2.86886e-06
2.93637e-06
2.99146e-06
3.03401e-06
3.0639e-06
3.08103e-06
3.08524e-06
3.0763e-06
3.0539e-06
3.01771e-06
2.96734e-06
2.9024e-06
2.82256e-06
2.72753e-06
2.61718e-06
2.49158e-06
2.35102e-06
2.19612e-06
2.02782e-06
1.84749e-06
1.65698e-06
1.45864e-06
1.25549e-06
1.05129e-06
8.50696e-07
6.59367e-07
4.83899e-07
3.31294e-07
2.07753e-07
1.16776e-07
5.73297e-08
2.37094e-08
7.80487e-09
1.84689e-09
2.55323e-10
1.27909e-11
7.47831e-14
2.60671e-06
2.67854e-06
2.77549e-06
2.90004e-06
3.05106e-06
3.22068e-06
3.40106e-06
3.58521e-06
3.76714e-06
3.942e-06
4.10602e-06
4.25641e-06
4.39116e-06
4.50892e-06
4.60881e-06
4.69023e-06
4.75277e-06
4.79608e-06
4.81984e-06
4.82363e-06
4.80697e-06
4.76927e-06
4.70985e-06
4.62801e-06
4.52304e-06
4.39425e-06
4.24112e-06
4.06335e-06
3.86092e-06
3.63425e-06
3.38426e-06
3.11252e-06
2.82134e-06
2.51395e-06
2.19468e-06
1.86914e-06
1.5445e-06
1.22952e-06
9.34496e-07
6.70448e-07
4.47643e-07
2.73379e-07
1.49738e-07
7.19274e-08
2.92897e-08
9.54659e-09
2.24529e-09
3.09364e-10
1.54109e-11
8.92561e-14
4.1336e-06
4.25669e-06
4.39324e-06
4.56079e-06
4.75929e-06
4.98344e-06
5.22356e-06
5.47058e-06
5.7165e-06
5.95453e-06
6.17922e-06
6.38633e-06
6.57269e-06
6.736e-06
6.87461e-06
6.98731e-06
7.07321e-06
7.1315e-06
7.16144e-06
7.16216e-06
7.13272e-06
7.07201e-06
6.97885e-06
6.85195e-06
6.69005e-06
6.49195e-06
6.25669e-06
5.98363e-06
5.67266e-06
5.32434e-06
4.94013e-06
4.5226e-06
4.07572e-06
3.60515e-06
3.11862e-06
2.62622e-06
2.14065e-06
1.67695e-06
1.25159e-06
8.80453e-07
5.75949e-07
3.44313e-07
1.84648e-07
8.72068e-08
3.51692e-08
1.14176e-08
2.67805e-09
3.68451e-10
1.82419e-11
1.03718e-13
6.19506e-06
6.41195e-06
6.60614e-06
6.8304e-06
7.08122e-06
7.36429e-06
7.66881e-06
7.98376e-06
8.29909e-06
8.60604e-06
8.8973e-06
9.16698e-06
9.41045e-06
9.6242e-06
9.80552e-06
9.95234e-06
1.0063e-05
1.01359e-05
1.01696e-05
1.01626e-05
1.01131e-05
1.00193e-05
9.87899e-06
9.69016e-06
9.45064e-06
9.15844e-06
8.81191e-06
8.40994e-06
7.95227e-06
7.43976e-06
6.87481e-06
6.26172e-06
5.60724e-06
4.92109e-06
4.21648e-06
3.51041e-06
2.82356e-06
2.17922e-06
1.60092e-06
1.10863e-06
7.14393e-07
4.19822e-07
2.21135e-07
1.03018e-07
4.14775e-08
1.35315e-08
3.17648e-09
4.37185e-10
2.12377e-11
1.21774e-13
8.81743e-06
9.19712e-06
9.47691e-06
9.77327e-06
1.00879e-05
1.04337e-05
1.08045e-05
1.11886e-05
1.15745e-05
1.19515e-05
1.23107e-05
1.26444e-05
1.29463e-05
1.32115e-05
1.34361e-05
1.36166e-05
1.37504e-05
1.3835e-05
1.38676e-05
1.38458e-05
1.37666e-05
1.36269e-05
1.34235e-05
1.31529e-05
1.28117e-05
1.23969e-05
1.19058e-05
1.13367e-05
1.06892e-05
9.96496e-06
9.16781e-06
8.305e-06
7.38771e-06
6.43186e-06
5.45867e-06
4.49467e-06
3.57075e-06
2.71973e-06
1.9722e-06
1.3508e-06
8.63466e-07
4.991e-07
2.57976e-07
1.19553e-07
4.87768e-08
1.6281e-08
3.85902e-09
5.33946e-10
2.55626e-11
1.05517e-13
1.19657e-05
1.26071e-05
1.30138e-05
1.34064e-05
1.38035e-05
1.42142e-05
1.46505e-05
1.51012e-05
1.55542e-05
1.59977e-05
1.6421e-05
1.6815e-05
1.71718e-05
1.7485e-05
1.7749e-05
1.79591e-05
1.81112e-05
1.82012e-05
1.82252e-05
1.8179e-05
1.80582e-05
1.78579e-05
1.75732e-05
1.7199e-05
1.67301e-05
1.6162e-05
1.54908e-05
1.47143e-05
1.3832e-05
1.28468e-05
1.17653e-05
1.05991e-05
9.36576e-06
8.09001e-06
6.80362e-06
5.54482e-06
4.35611e-06
3.2801e-06
2.3539e-06
1.60371e-06
1.1983e-06
6.4938e-07
3.35392e-07
1.59863e-07
6.93317e-08
2.54673e-08
6.88713e-09
1.12626e-09
7.90254e-11
4.05703e-13
1.5538e-05
1.65648e-05
1.71519e-05
1.76721e-05
1.81757e-05
1.86615e-05
1.91612e-05
1.96733e-05
2.01863e-05
2.06881e-05
2.11671e-05
2.16129e-05
2.20163e-05
2.23693e-05
2.26649e-05
2.28966e-05
2.30587e-05
2.31453e-05
2.31507e-05
2.30687e-05
2.28928e-05
2.26161e-05
2.22314e-05
2.17313e-05
2.11087e-05
2.0357e-05
1.94712e-05
1.84483e-05
1.72886e-05
1.59968e-05
1.45834e-05
1.30663e-05
1.14719e-05
9.83585e-06
8.20257e-06
6.62334e-06
5.1522e-06
3.84003e-06
2.72731e-06
1.8363e-06
1.33736e-06
7.18094e-07
3.59699e-07
1.71903e-07
7.75734e-08
2.9304e-08
7.88829e-09
1.27143e-09
7.87447e-11
4.30446e-13
1.93765e-05
2.0922e-05
2.17508e-05
2.24352e-05
2.30645e-05
2.36532e-05
2.42163e-05
2.47838e-05
2.53474e-05
2.58963e-05
2.64191e-05
2.69046e-05
2.73426e-05
2.77239e-05
2.80399e-05
2.82824e-05
2.84438e-05
2.85162e-05
2.84916e-05
2.83616e-05
2.81171e-05
2.77487e-05
2.72463e-05
2.66001e-05
2.58004e-05
2.48386e-05
2.37084e-05
2.24062e-05
2.09336e-05
1.92982e-05
1.7516e-05
1.56129e-05
1.3626e-05
1.16039e-05
9.60481e-06
7.69331e-06
5.93388e-06
4.38349e-06
3.08396e-06
2.05218e-06
1.46543e-06
7.72442e-07
3.82698e-07
1.85743e-07
8.66628e-08
3.27096e-08
8.67887e-09
1.39712e-09
8.67739e-11
5.22296e-13
2.32904e-05
2.54753e-05
2.66052e-05
2.74908e-05
2.82689e-05
2.89825e-05
2.96224e-05
3.02394e-05
3.08441e-05
3.14281e-05
3.19812e-05
3.24925e-05
3.29514e-05
3.33476e-05
3.36712e-05
3.39123e-05
3.40613e-05
3.41082e-05
3.40425e-05
3.38531e-05
3.35281e-05
3.30551e-05
3.2421e-05
3.1613e-05
3.06188e-05
2.94277e-05
2.80318e-05
2.6428e-05
2.46192e-05
2.26173e-05
2.0445e-05
1.81377e-05
1.57446e-05
1.33283e-05
1.09613e-05
8.72066e-06
6.67996e-06
4.90008e-06
3.42177e-06
2.25886e-06
1.60743e-06
8.41937e-07
4.20747e-07
2.08553e-07
9.82843e-08
3.04749e-08
7.63746e-09
1.32153e-09
8.57742e-11
5.51951e-13
2.70825e-05
2.99921e-05
3.14691e-05
3.25859e-05
3.35319e-05
3.43749e-05
3.51216e-05
3.57887e-05
3.64264e-05
3.70341e-05
3.76046e-05
3.81282e-05
3.85945e-05
3.89924e-05
3.93112e-05
3.95393e-05
3.96652e-05
3.96767e-05
3.95606e-05
3.93031e-05
3.88892e-05
3.83034e-05
3.75293e-05
3.65511e-05
3.53537e-05
3.39244e-05
3.22542e-05
3.03403e-05
2.81882e-05
2.58147e-05
2.325e-05
2.05401e-05
1.7747e-05
1.49471e-05
1.22267e-05
9.67436e-06
7.37098e-06
5.38011e-06
3.74041e-06
2.46162e-06
1.75159e-06
9.27964e-07
4.69776e-07
2.35724e-07
1.10367e-07
3.26909e-08
9.33196e-09
1.52651e-09
1.15689e-10
9.17654e-13
3.05731e-05
3.42394e-05
3.60861e-05
3.74496e-05
3.85736e-05
3.95495e-05
4.04109e-05
4.11464e-05
4.18101e-05
4.24322e-05
4.30092e-05
4.35337e-05
4.39959e-05
4.43847e-05
4.46884e-05
4.48944e-05
4.49891e-05
4.49582e-05
4.47862e-05
4.44562e-05
4.39504e-05
4.32498e-05
4.23353e-05
4.11877e-05
3.97894e-05
3.81258e-05
3.61872e-05
3.39715e-05
3.14873e-05
2.87565e-05
2.58176e-05
2.27272e-05
1.95598e-05
1.6405e-05
1.33613e-05
1.05266e-05
7.98797e-06
5.81025e-06
4.02956e-06
2.64965e-06
1.8808e-06
1.01002e-06
5.14281e-07
2.58529e-07
1.201e-07
3.58733e-08
1.00416e-08
1.55161e-09
1.38952e-10
1.16443e-12
3.36136e-05
3.80074e-05
4.02158e-05
4.18219e-05
4.31207e-05
4.42256e-05
4.51856e-05
4.60075e-05
4.67032e-05
4.73334e-05
4.79092e-05
4.84263e-05
4.88763e-05
4.92486e-05
4.95307e-05
4.9709e-05
4.97685e-05
4.96928e-05
4.9464e-05
4.90627e-05
4.84682e-05
4.76587e-05
4.66118e-05
4.5306e-05
4.37211e-05
4.18409e-05
3.96553e-05
3.71635e-05
3.43768e-05
3.13229e-05
2.80479e-05
2.46184e-05
2.11204e-05
1.76549e-05
1.43307e-05
1.12536e-05
8.51419e-06
6.17785e-06
4.27788e-06
2.8118e-06
1.98591e-06
1.07498e-06
5.47117e-07
2.74564e-07
1.27722e-07
3.92423e-08
1.09069e-08
1.80161e-09
1.36256e-10
6.26473e-13
3.60913e-05
4.11237e-05
4.36537e-05
4.54765e-05
4.69316e-05
4.81511e-05
4.91955e-05
5.00905e-05
5.08325e-05
5.14681e-05
5.20379e-05
5.25428e-05
5.29767e-05
5.33292e-05
5.35875e-05
5.37372e-05
5.3762e-05
5.36438e-05
5.33628e-05
5.28974e-05
5.22243e-05
5.13192e-05
5.01573e-05
4.87146e-05
4.69692e-05
4.49036e-05
4.25075e-05
3.97811e-05
3.67391e-05
3.34137e-05
2.98582e-05
2.61477e-05
2.23775e-05
1.86584e-05
1.51072e-05
1.18351e-05
8.93532e-06
6.47244e-06
4.47658e-06
2.94132e-06
2.07027e-06
1.12625e-06
5.72885e-07
2.87778e-07
1.35235e-07
4.20704e-08
1.18631e-08
2.04935e-09
8.75986e-11
5.48862e-14
3.79279e-05
4.34588e-05
4.62419e-05
4.82352e-05
4.98132e-05
5.11224e-05
5.22318e-05
5.31755e-05
5.39627e-05
5.46092e-05
5.51702e-05
5.56619e-05
5.60794e-05
5.64129e-05
5.66495e-05
5.6774e-05
5.67692e-05
5.66158e-05
5.62923e-05
5.57755e-05
5.50401e-05
5.406e-05
5.28084e-05
5.12596e-05
4.93902e-05
4.71819e-05
4.46245e-05
4.17192e-05
3.84831e-05
3.49525e-05
3.1186e-05
2.72654e-05
2.32932e-05
1.93871e-05
1.56696e-05
1.22557e-05
9.24016e-06
6.6864e-06
4.62177e-06
3.03632e-06
2.13481e-06
1.17038e-06
5.96991e-07
3.00851e-07
1.42873e-07
4.47573e-08
1.31905e-08
2.45455e-09
1.32602e-10
8.65794e-23
3.90859e-05
4.49436e-05
4.78933e-05
4.99979e-05
5.16553e-05
5.30217e-05
5.41716e-05
5.51435e-05
5.59553e-05
5.66149e-05
5.7169e-05
5.7649e-05
5.80533e-05
5.83722e-05
5.85926e-05
5.86989e-05
5.86733e-05
5.84955e-05
5.81433e-05
5.7592e-05
5.68153e-05
5.57859e-05
5.44756e-05
5.28577e-05
5.09079e-05
4.86075e-05
4.59461e-05
4.29261e-05
3.95661e-05
3.5905e-05
3.20051e-05
2.79523e-05
2.38538e-05
1.98314e-05
1.60112e-05
1.25106e-05
9.42476e-06
6.81667e-06
4.71191e-06
3.09819e-06
2.17445e-06
1.20555e-06
6.18348e-07
3.12553e-07
1.48991e-07
4.7762e-08
1.48187e-08
3.03536e-09
3.09236e-10
2.92679e-13
3.95239e-05
4.55058e-05
4.85171e-05
5.06608e-05
5.23443e-05
5.37281e-05
5.4889e-05
5.58669e-05
5.66822e-05
5.73447e-05
5.78935e-05
5.8366e-05
5.87631e-05
5.90746e-05
5.92872e-05
5.93853e-05
5.93506e-05
5.91626e-05
5.87987e-05
5.82338e-05
5.74411e-05
5.63927e-05
5.50602e-05
5.34162e-05
5.14363e-05
4.91016e-05
4.64019e-05
4.33398e-05
3.99347e-05
3.62266e-05
3.2279e-05
2.81795e-05
2.40369e-05
1.99745e-05
1.61195e-05
1.25899e-05
9.4812e-06
6.85599e-06
4.73909e-06
3.11696e-06
2.18258e-06
1.22312e-06
6.29235e-07
3.18722e-07
1.51971e-07
4.95935e-08
1.54195e-08
3.49816e-09
5.58716e-10
7.58038e-11
3.92296e-05
4.51202e-05
4.80799e-05
5.01847e-05
5.18369e-05
5.31954e-05
5.43357e-05
5.52968e-05
5.60963e-05
5.67435e-05
5.72877e-05
5.77599e-05
5.81571e-05
5.84694e-05
5.86838e-05
5.87847e-05
5.87539e-05
5.85712e-05
5.82142e-05
5.7658e-05
5.68761e-05
5.58411e-05
5.45248e-05
5.29002e-05
5.09432e-05
4.8635e-05
4.59656e-05
4.29375e-05
3.95695e-05
3.59011e-05
3.19947e-05
2.79367e-05
2.38346e-05
1.98102e-05
1.59897e-05
1.24902e-05
9.4068e-06
6.80218e-06
4.70167e-06
3.09212e-06
2.15218e-06
1.21563e-06
6.24984e-07
3.16025e-07
1.50027e-07
4.85148e-08
1.47314e-08
3.14935e-09
3.87085e-10
1.42756e-11
3.8213e-05
4.3804e-05
4.66027e-05
4.85932e-05
5.01595e-05
5.1452e-05
5.25417e-05
5.34634e-05
5.42265e-05
5.48498e-05
5.53924e-05
5.58685e-05
5.62719e-05
5.65924e-05
5.68173e-05
5.6931e-05
5.69163e-05
5.67534e-05
5.64206e-05
5.58942e-05
5.51489e-05
5.4158e-05
5.28948e-05
5.13332e-05
4.945e-05
4.7227e-05
4.46543e-05
4.17335e-05
3.84824e-05
3.4938e-05
3.11595e-05
2.72293e-05
2.32506e-05
1.93411e-05
1.56235e-05
1.22126e-05
9.20237e-06
6.65571e-06
4.59937e-06
3.02239e-06
2.09417e-06
1.18562e-06
6.06539e-07
3.05543e-07
1.44167e-07
4.55858e-08
1.32358e-08
2.50093e-09
2.26757e-10
9.12813e-13
3.65093e-05
4.16204e-05
4.41663e-05
4.59806e-05
4.74161e-05
4.86096e-05
4.96243e-05
5.04862e-05
5.11937e-05
5.17983e-05
5.23423e-05
5.28245e-05
5.32377e-05
5.35715e-05
5.38129e-05
5.39472e-05
5.39578e-05
5.38261e-05
5.35318e-05
5.30529e-05
5.23656e-05
5.14453e-05
5.0267e-05
4.88063e-05
4.70415e-05
4.49553e-05
4.25378e-05
3.97899e-05
3.67269e-05
3.33823e-05
2.98103e-05
2.60868e-05
2.2308e-05
1.8585e-05
1.50346e-05
1.17676e-05
8.87642e-06
6.42421e-06
4.43961e-06
2.91544e-06
2.01119e-06
1.14159e-06
5.82202e-07
2.91875e-07
1.36538e-07
4.22451e-08
1.19416e-08
2.1218e-09
2.11657e-10
2.32188e-12
3.41406e-05
3.86246e-05
4.08473e-05
4.2439e-05
4.37108e-05
4.47815e-05
4.57028e-05
4.64829e-05
4.71368e-05
4.77307e-05
4.82747e-05
4.87631e-05
4.91873e-05
4.95362e-05
4.97973e-05
4.99564e-05
4.99982e-05
4.99057e-05
4.96605e-05
4.92425e-05
4.86305e-05
4.78023e-05
4.67352e-05
4.54073e-05
4.37987e-05
4.18932e-05
3.96814e-05
3.71631e-05
3.43509e-05
3.12735e-05
2.79784e-05
2.45333e-05
2.10249e-05
1.75551e-05
1.42327e-05
1.11627e-05
8.43498e-06
6.11292e-06
4.22789e-06
2.7769e-06
1.9102e-06
1.09194e-06
5.56361e-07
2.78076e-07
1.28882e-07
3.89812e-08
1.09723e-08
1.8845e-09
1.54601e-10
1.15296e-12
3.11848e-05
3.49435e-05
3.68003e-05
3.81434e-05
3.9234e-05
4.01692e-05
4.0985e-05
4.16723e-05
4.22909e-05
4.28732e-05
4.34143e-05
4.39061e-05
4.43388e-05
4.47011e-05
4.49808e-05
4.51649e-05
4.52395e-05
4.51896e-05
4.49989e-05
4.465e-05
4.41244e-05
4.34028e-05
4.24653e-05
4.12929e-05
3.98678e-05
3.81756e-05
3.62073e-05
3.39618e-05
3.14486e-05
2.86912e-05
2.57294e-05
2.26211e-05
1.94421e-05
1.62825e-05
1.3241e-05
1.04151e-05
7.89058e-06
5.73079e-06
3.96938e-06
2.60766e-06
1.79387e-06
1.03292e-06
5.26473e-07
2.63853e-07
1.21589e-07
3.59623e-08
1.00639e-08
1.568e-09
1.25227e-10
9.39483e-13
2.77488e-05
3.07443e-05
3.22254e-05
3.33163e-05
3.42241e-05
3.50219e-05
3.5719e-05
3.63359e-05
3.69279e-05
3.74941e-05
3.80265e-05
3.85156e-05
3.89506e-05
3.93205e-05
3.96137e-05
3.98187e-05
3.99232e-05
3.99143e-05
3.97784e-05
3.95009e-05
3.9066e-05
3.84578e-05
3.76595e-05
3.6655e-05
3.54291e-05
3.39695e-05
3.22678e-05
3.0322e-05
2.8139e-05
2.57368e-05
2.31473e-05
2.0418e-05
1.76121e-05
1.48068e-05
1.20887e-05
9.54589e-06
7.25849e-06
5.28893e-06
3.67512e-06
2.42284e-06
1.65044e-06
9.584e-07
4.88611e-07
2.44163e-07
1.12573e-07
3.29793e-08
9.30085e-09
1.54347e-09
9.21081e-11
3.00766e-13
2.39781e-05
2.62352e-05
2.73621e-05
2.82175e-05
2.89548e-05
2.96215e-05
3.02111e-05
3.078e-05
3.13402e-05
3.18831e-05
3.23984e-05
3.28753e-05
3.33031e-05
3.36711e-05
3.39691e-05
3.41869e-05
3.43143e-05
3.43408e-05
3.42551e-05
3.40455e-05
3.36994e-05
3.32039e-05
3.25455e-05
3.1711e-05
3.06881e-05
2.94665e-05
2.80388e-05
2.64027e-05
2.45624e-05
2.25312e-05
2.03333e-05
1.80056e-05
1.55989e-05
1.31764e-05
1.08112e-05
8.58005e-06
6.55563e-06
4.79729e-06
3.34325e-06
2.20731e-06
1.50354e-06
8.69911e-07
4.39129e-07
2.18456e-07
1.01657e-07
3.01601e-08
7.7359e-09
1.36385e-09
8.92735e-11
4.53e-13
2.00515e-05
2.16509e-05
2.24701e-05
2.31219e-05
2.37104e-05
2.42533e-05
2.47693e-05
2.52926e-05
2.5815e-05
2.63254e-05
2.68127e-05
2.72657e-05
2.76742e-05
2.80287e-05
2.83202e-05
2.85405e-05
2.86811e-05
2.87339e-05
2.86902e-05
2.85408e-05
2.82761e-05
2.78861e-05
2.73604e-05
2.66888e-05
2.58616e-05
2.48705e-05
2.37095e-05
2.23761e-05
2.08728e-05
1.92087e-05
1.74011e-05
1.54775e-05
1.34765e-05
1.14474e-05
9.44927e-06
7.54653e-06
5.80286e-06
4.27321e-06
2.99694e-06
1.99041e-06
1.35335e-06
7.86307e-07
3.92199e-07
1.91594e-07
8.93213e-08
3.31802e-08
8.5202e-09
1.44874e-09
9.18341e-11
5.5025e-13
1.61681e-05
1.72295e-05
1.78022e-05
1.82899e-05
1.87551e-05
1.91988e-05
1.96577e-05
2.0131e-05
2.06074e-05
2.1075e-05
2.15223e-05
2.19389e-05
2.23156e-05
2.26443e-05
2.29176e-05
2.3129e-05
2.32721e-05
2.33408e-05
2.33285e-05
2.32287e-05
2.30343e-05
2.27379e-05
2.23318e-05
2.18084e-05
2.11605e-05
2.03818e-05
1.94677e-05
1.84158e-05
1.72275e-05
1.59086e-05
1.44711e-05
1.29341e-05
1.13256e-05
9.68199e-06
8.04854e-06
6.47657e-06
5.01952e-06
3.72654e-06
2.63478e-06
1.76598e-06
1.23252e-06
7.22318e-07
3.59191e-07
1.72837e-07
7.90143e-08
3.00108e-08
8.03281e-09
1.27285e-09
7.64329e-11
4.53358e-13
1.25246e-05
1.31835e-05
1.35732e-05
1.3936e-05
1.42991e-05
1.46743e-05
1.50766e-05
1.54949e-05
1.59171e-05
1.63317e-05
1.6728e-05
1.7097e-05
1.74308e-05
1.77228e-05
1.79675e-05
1.81598e-05
1.82953e-05
1.83695e-05
1.8378e-05
1.83162e-05
1.81791e-05
1.79614e-05
1.7658e-05
1.72633e-05
1.67722e-05
1.61803e-05
1.5484e-05
1.46818e-05
1.3774e-05
1.27644e-05
1.16608e-05
1.04761e-05
9.22922e-06
7.9457e-06
6.65813e-06
5.40509e-06
4.22899e-06
3.17194e-06
2.27101e-06
1.54905e-06
1.06849e-06
6.64702e-07
3.36965e-07
1.60521e-07
7.13573e-08
2.65383e-08
7.19687e-09
1.1429e-09
7.06827e-11
3.73516e-13
9.28735e-06
9.67192e-06
9.93486e-06
1.02056e-05
1.04923e-05
1.08103e-05
1.11542e-05
1.15126e-05
1.18739e-05
1.22276e-05
1.25649e-05
1.28781e-05
1.3161e-05
1.34088e-05
1.36172e-05
1.37829e-05
1.39028e-05
1.3974e-05
1.39936e-05
1.39586e-05
1.38657e-05
1.37114e-05
1.34922e-05
1.32043e-05
1.28445e-05
1.24096e-05
1.18972e-05
1.13063e-05
1.0637e-05
9.89169e-06
9.07531e-06
8.19611e-06
7.26631e-06
6.30282e-06
5.32762e-06
4.36768e-06
3.45395e-06
2.61933e-06
1.89511e-06
1.30415e-06
8.37309e-07
4.8369e-07
2.48085e-07
1.14616e-07
4.77301e-08
1.58356e-08
3.70272e-09
5.21481e-10
2.29327e-11
1.10936e-13
6.56868e-06
6.78298e-06
6.9625e-06
7.16651e-06
7.39613e-06
7.65856e-06
7.94311e-06
8.23872e-06
8.53539e-06
8.82448e-06
9.09876e-06
9.35245e-06
9.581e-06
9.78089e-06
9.94939e-06
1.00843e-05
1.01837e-05
1.0246e-05
1.02692e-05
1.02515e-05
1.0191e-05
1.00854e-05
9.93238e-06
9.72968e-06
9.47509e-06
9.16669e-06
8.803e-06
8.38328e-06
7.90776e-06
7.37795e-06
6.79697e-06
6.16997e-06
5.50458e-06
4.81136e-06
4.10426e-06
3.40083e-06
2.72186e-06
2.09025e-06
1.52928e-06
1.06013e-06
6.87242e-07
4.02111e-07
2.11457e-07
9.95061e-08
4.02255e-08
1.31002e-08
3.09713e-09
4.16623e-10
2.02667e-11
1.17997e-13
4.41368e-06
4.5311e-06
4.65626e-06
4.80905e-06
4.99282e-06
5.20266e-06
5.4288e-06
5.66211e-06
5.89461e-06
6.11963e-06
6.3318e-06
6.52701e-06
6.70216e-06
6.85499e-06
6.98384e-06
7.08744e-06
7.16476e-06
7.21483e-06
7.23668e-06
7.22924e-06
7.19129e-06
7.12154e-06
7.01858e-06
6.88103e-06
6.70755e-06
6.49698e-06
6.24849e-06
5.9617e-06
5.63684e-06
5.27494e-06
4.87803e-06
4.44931e-06
3.99339e-06
3.51664e-06
3.02741e-06
2.53639e-06
2.05659e-06
1.60274e-06
1.19014e-06
8.34628e-07
5.46461e-07
3.26195e-07
1.74834e-07
8.29296e-08
3.35336e-08
1.08811e-08
2.55911e-09
3.49703e-10
1.7352e-11
1.0108e-13
2.8039e-06
2.86996e-06
2.95906e-06
3.07386e-06
3.21548e-06
3.37591e-06
3.54715e-06
3.72216e-06
3.89498e-06
4.06084e-06
4.2161e-06
4.35804e-06
4.48478e-06
4.59501e-06
4.68783e-06
4.76263e-06
4.81891e-06
4.85621e-06
4.87405e-06
4.87187e-06
4.84899e-06
4.80466e-06
4.7381e-06
4.64848e-06
4.53505e-06
4.39714e-06
4.23432e-06
4.04645e-06
3.83377e-06
3.59701e-06
3.3375e-06
3.05724e-06
2.75902e-06
2.44657e-06
2.12469e-06
1.79946e-06
1.47842e-06
1.1704e-06
8.84674e-07
6.31605e-07
4.20633e-07
2.56353e-07
1.40182e-07
6.73497e-08
2.74434e-08
8.9401e-09
2.10158e-09
2.88548e-10
1.4375e-11
8.37961e-14
1.67331e-06
1.71283e-06
1.7763e-06
1.86097e-06
1.96497e-06
2.08128e-06
2.20387e-06
2.32768e-06
2.44864e-06
2.56362e-06
2.67036e-06
2.76727e-06
2.85333e-06
2.92789e-06
2.99056e-06
3.04109e-06
3.07931e-06
3.10505e-06
3.11809e-06
3.11816e-06
3.10491e-06
3.07794e-06
3.03681e-06
2.98107e-06
2.9103e-06
2.82415e-06
2.72241e-06
2.60506e-06
2.47232e-06
2.3247e-06
2.16306e-06
1.98867e-06
1.80322e-06
1.60887e-06
1.40832e-06
1.20488e-06
1.00258e-06
8.06262e-07
6.2116e-07
4.53198e-07
3.08832e-07
1.92942e-07
1.08093e-07
5.29346e-08
2.18556e-08
7.17874e-09
1.69359e-09
2.33088e-10
1.16264e-11
6.77819e-14
9.29528e-07
9.54703e-07
9.98422e-07
1.05871e-06
1.13081e-06
1.20997e-06
1.29211e-06
1.37393e-06
1.45289e-06
1.52716e-06
1.5955e-06
1.6571e-06
1.71149e-06
1.75843e-06
1.79778e-06
1.82951e-06
1.85359e-06
1.86998e-06
1.8786e-06
1.87933e-06
1.872e-06
1.85641e-06
1.83233e-06
1.7995e-06
1.75773e-06
1.70682e-06
1.6467e-06
1.57737e-06
1.49901e-06
1.41197e-06
1.31678e-06
1.21421e-06
1.10528e-06
9.91226e-07
8.73569e-07
7.54066e-07
6.34776e-07
5.18136e-07
4.06816e-07
3.03826e-07
2.12721e-07
1.36951e-07
7.91118e-08
3.98001e-08
1.67704e-08
5.58207e-09
1.32605e-09
1.83077e-10
9.14148e-12
5.32939e-14
4.74308e-07
4.91012e-07
5.20272e-07
5.60002e-07
6.06376e-07
6.56248e-07
7.07078e-07
7.56923e-07
8.04389e-07
8.48541e-07
8.88796e-07
9.24824e-07
9.56464e-07
9.8366e-07
1.00641e-06
1.02475e-06
1.03869e-06
1.04824e-06
1.0534e-06
1.0541e-06
1.05027e-06
1.04181e-06
1.0286e-06
1.01052e-06
9.87471e-07
9.5936e-07
9.26153e-07
8.87878e-07
8.44645e-07
7.96663e-07
7.44253e-07
6.87859e-07
6.28051e-07
5.65529e-07
5.01115e-07
4.3574e-07
3.70436e-07
3.06364e-07
2.44783e-07
1.87055e-07
1.34801e-07
8.98341e-08
5.39074e-08
2.8143e-08
1.22287e-08
4.158e-09
9.99526e-10
1.38722e-10
6.93809e-12
4.04482e-14
2.17892e-07
2.28839e-07
2.47213e-07
2.71212e-07
2.98411e-07
3.26965e-07
3.55478e-07
3.82963e-07
4.08771e-07
4.3251e-07
4.53967e-07
4.73046e-07
4.8972e-07
5.04006e-07
5.15934e-07
5.2554e-07
5.32852e-07
5.37888e-07
5.40648e-07
5.41115e-07
5.39254e-07
5.35018e-07
5.28355e-07
5.19205e-07
5.07519e-07
4.93259e-07
4.76411e-07
4.56996e-07
4.35076e-07
4.10766e-07
3.84238e-07
3.55725e-07
3.25527e-07
2.94006e-07
2.61584e-07
2.28732e-07
1.95956e-07
1.63796e-07
1.32818e-07
1.03594e-07
7.67602e-08
5.30463e-08
3.32763e-08
1.82373e-08
8.29369e-09
2.92005e-09
7.16694e-10
1.00402e-10
5.03592e-12
2.93622e-14
8.7426e-08
9.41134e-08
1.04637e-07
1.17586e-07
1.31745e-07
1.46199e-07
1.6031e-07
1.73669e-07
1.8604e-07
1.97302e-07
2.07404e-07
2.16338e-07
2.24116e-07
2.30763e-07
2.36305e-07
2.40766e-07
2.44165e-07
2.46514e-07
2.47815e-07
2.48063e-07
2.47244e-07
2.45338e-07
2.42322e-07
2.38171e-07
2.32864e-07
2.26384e-07
2.18727e-07
2.09904e-07
1.99946e-07
1.88907e-07
1.76868e-07
1.63939e-07
1.5026e-07
1.35999e-07
1.2135e-07
1.06532e-07
9.17748e-08
7.73187e-08
6.34063e-08
5.02718e-08
3.81465e-08
2.72723e-08
1.79219e-08
1.04139e-08
5.04867e-09
1.88138e-09
4.79674e-10
6.84177e-11
3.45019e-12
2.01246e-14
2.92857e-08
3.2975e-08
3.81194e-08
4.40866e-08
5.0356e-08
5.65611e-08
6.24763e-08
6.79791e-08
7.30118e-08
7.7554e-08
8.16045e-08
8.51724e-08
8.82708e-08
9.09141e-08
9.31159e-08
9.4888e-08
9.6239e-08
9.71745e-08
9.76965e-08
9.78032e-08
9.74895e-08
9.6748e-08
9.55699e-08
9.39458e-08
9.18672e-08
8.93286e-08
8.63283e-08
8.28713e-08
7.89701e-08
7.46465e-08
6.99331e-08
6.48739e-08
5.95244e-08
5.39516e-08
4.82329e-08
4.24547e-08
3.6709e-08
3.10906e-08
2.5694e-08
2.06091e-08
1.59182e-08
1.16962e-08
8.01429e-09
4.94992e-09
2.60042e-09
1.05761e-09
2.89409e-10
4.28725e-11
2.18705e-12
1.27706e-14
7.62253e-09
9.2885e-09
1.13037e-08
1.35001e-08
1.57077e-08
1.78226e-08
1.97935e-08
2.15996e-08
2.32357e-08
2.47034e-08
2.60073e-08
2.7153e-08
2.81465e-08
2.89933e-08
2.96983e-08
3.02657e-08
3.06986e-08
3.09988e-08
3.1167e-08
3.12028e-08
3.11047e-08
3.08703e-08
3.04968e-08
2.99814e-08
2.93214e-08
2.8515e-08
2.75619e-08
2.64637e-08
2.52244e-08
2.38512e-08
2.23544e-08
2.07482e-08
1.90504e-08
1.72826e-08
1.54694e-08
1.36386e-08
1.18197e-08
1.00432e-08
8.33946e-09
6.73744e-09
5.26333e-09
3.93958e-09
2.78414e-09
1.81093e-09
1.03362e-09
4.72318e-10
1.46426e-10
2.36174e-11
1.24073e-12
7.2673e-15
1.37663e-09
1.90519e-09
2.46877e-09
3.04306e-09
3.59386e-09
4.10575e-09
4.57421e-09
4.9991e-09
5.38175e-09
5.72386e-09
6.02719e-09
6.29343e-09
6.52412e-09
6.72069e-09
6.88433e-09
7.01604e-09
7.11655e-09
7.18631e-09
7.22552e-09
7.23405e-09
7.21157e-09
7.15754e-09
7.07132e-09
6.95224e-09
6.79969e-09
6.61328e-09
6.39292e-09
6.13899e-09
5.85246e-09
5.53496e-09
5.18893e-09
4.81766e-09
4.4253e-09
4.01683e-09
3.59801e-09
3.17523e-09
2.75537e-09
2.34553e-09
1.95277e-09
1.58388e-09
1.24505e-09
9.41563e-10
6.77556e-10
4.55718e-10
2.77235e-10
1.42454e-10
5.29635e-11
1.02882e-11
5.90776e-13
3.50019e-15
1.41739e-10
2.34435e-10
3.24124e-10
4.09315e-10
4.8764e-10
5.5887e-10
6.23384e-10
6.81608e-10
7.33913e-10
7.80616e-10
8.21994e-10
8.58295e-10
8.89743e-10
9.16534e-10
9.38837e-10
9.56789e-10
9.70491e-10
9.80006e-10
9.8536e-10
9.86536e-10
9.83487e-10
9.76141e-10
9.64411e-10
9.48203e-10
9.27435e-10
9.02053e-10
8.72046e-10
8.37466e-10
7.98443e-10
7.55204e-10
7.08083e-10
6.57526e-10
6.04102e-10
5.48493e-10
4.91482e-10
4.33942e-10
3.7681e-10
3.21053e-10
2.67636e-10
2.17488e-10
1.71455e-10
1.30269e-10
9.45102e-11
6.45659e-11
4.05955e-11
2.24989e-11
9.94359e-12
2.64116e-12
2.00963e-13
1.26264e-15