/*--------------------------------*- C++ -*----------------------------------*\
| =========                 |                                                 |
| \\      /  F ield         | foam-extend: Open Source CFD                    |
|  \\    /   O peration     | Version:     4.0                                |
|   \\  /    A nd           | Web:         http://www.foam-extend.org         |
|    \\/     M anipulation  |                                                 |
\*---------------------------------------------------------------------------*/
FoamFile
{
    version     2.0;
    format      ascii;
    class       volScalarField;
    location    "0.001";
    object      omega;
}
// * * * * * * * * * * * * * * * * * * * * * * * * * * * * * * * * * * * * * //

dimensions      [0 0 -1 0 0 0 0];

internalField   nonuniform List<scalar> 
28770
(
1.87595e+07
1.87595e+07
1.87595e+07
1.87595e+07
1.87595e+07
1.87595e+07
1.87595e+07
1.87595e+07
1.87595e+07
1.87595e+07
1.87595e+07
1.87595e+07
1.87595e+07
1.87595e+07
1.87595e+07
1.87595e+07
1.87595e+07
1.87595e+07
1.87595e+07
1.87595e+07
1.87595e+07
1.87595e+07
1.87595e+07
1.87595e+07
1.87595e+07
1.87595e+07
1.87595e+07
1.87595e+07
1.87595e+07
1.87595e+07
1.87595e+07
1.87595e+07
1.87595e+07
1.87595e+07
1.87595e+07
1.87595e+07
1.87595e+07
1.87595e+07
1.87595e+07
1.87595e+07
1.87595e+07
1.87595e+07
1.87595e+07
1.87595e+07
1.87595e+07
1.87595e+07
1.87595e+07
1.87595e+07
1.87595e+07
1.87595e+07
2.70012e+06
3.18574e+06
3.23008e+06
3.23475e+06
3.23538e+06
3.23549e+06
3.23552e+06
3.23553e+06
3.23554e+06
3.23554e+06
3.23554e+06
3.23554e+06
3.23554e+06
3.23554e+06
3.23554e+06
3.23554e+06
3.23554e+06
3.23554e+06
3.23554e+06
3.23554e+06
3.23554e+06
3.23554e+06
3.23554e+06
3.23554e+06
3.23555e+06
3.23555e+06
3.23555e+06
3.23555e+06
3.23555e+06
3.23555e+06
3.23555e+06
3.23555e+06
3.23555e+06
3.23556e+06
3.23556e+06
3.23556e+06
3.23556e+06
3.23557e+06
3.23557e+06
3.23558e+06
3.23559e+06
3.23562e+06
3.23568e+06
3.23586e+06
3.23645e+06
3.23893e+06
3.25307e+06
3.36212e+06
4.43128e+06
1.79872e+07
679416
1.01713e+06
1.08473e+06
1.09848e+06
1.10156e+06
1.10235e+06
1.10259e+06
1.10267e+06
1.1027e+06
1.10272e+06
1.10272e+06
1.10273e+06
1.10273e+06
1.10273e+06
1.10273e+06
1.10273e+06
1.10273e+06
1.10273e+06
1.10273e+06
1.10273e+06
1.10273e+06
1.10273e+06
1.10273e+06
1.10273e+06
1.10273e+06
1.10273e+06
1.10274e+06
1.10274e+06
1.10274e+06
1.10274e+06
1.10274e+06
1.10274e+06
1.10274e+06
1.10275e+06
1.10275e+06
1.10276e+06
1.10277e+06
1.10278e+06
1.10281e+06
1.10287e+06
1.10298e+06
1.10322e+06
1.10379e+06
1.10531e+06
1.1099e+06
1.12603e+06
1.19192e+06
1.50335e+06
3.24976e+06
1.79872e+07
228613
431008
496275
516081
522233
524267
524998
525285
525408
525464
525492
525507
525515
525520
525523
525525
525526
525527
525528
525528
525529
525529
525530
525531
525531
525532
525534
525535
525537
525540
525543
525548
525556
525566
525583
525609
525650
525721
525846
526076
526527
527466
529566
534665
548179
587437
712735
1.16002e+06
3.12319e+06
1.79872e+07
96114.4
214076
266518
287531
295781
299086
300467
301075
301358
301498
301570
301610
301632
301646
301654
301659
301663
301665
301667
301668
301669
301671
301672
301673
301675
301677
301680
301683
301688
301695
301705
301719
301739
301769
301815
301887
302004
302198
302535
303140
304279
306533
311242
321670
346213
407822
574731
1.08478e+06
3.10622e+06
1.79872e+07
47917.6
118607
157763
176977
185981
190175
192161
193128
193617
193874
194014
194093
194140
194168
194186
194198
194205
194211
194214
194217
194220
194222
194225
194228
194231
194236
194242
194250
194260
194276
194297
194327
194372
194438
194539
194696
194944
195351
196037
197231
199386
203432
211342
227492
262029
340007
530309
1.06585e+06
3.1032e+06
1.79872e+07
27091.4
71383.8
99978.1
116280
125042
129648
132068
133355
134055
134445
134669
134801
134881
134931
134963
134984
134998
135008
135016
135021
135026
135031
135036
135041
135048
135056
135067
135082
135103
135131
135171
135229
135312
135436
135620
135903
136344
137051
138208
140156
143532
149560
160675
181887
224028
312396
514671
1.06036e+06
3.10248e+06
1.79872e+07
16778.4
45850.7
66777.8
80116.3
88098.4
92725.8
95377.9
96900.5
97783.8
98304.5
98617.3
98809.3
98929.6
99006.8
99057.3
99091.3
99114.6
99131.2
99143.5
99153.3
99161.6
99169.3
99177.4
99186.7
99197.9
99212.2
99231.1
99256.5
99291.2
99339.3
99406.9
99502.7
99640.6
99841.6
100139
100587
101274
102347
104057
106844
111490
119428
133354
158539
205917
300432
508665
1.05852e+06
3.10227e+06
1.79872e+07
11128.8
31102.6
46564.3
57302.5
64300.9
68697.2
71408.3
73070.2
74091.7
74724.9
75122.4
75375.6
75539.5
75647.6
75720.1
75769.7
75804.5
75829.6
75848.5
75863.5
75876.4
75888.6
75901.3
75915.7
75933.3
75955.7
75985.1
76024.6
76078.3
76152.4
76255.5
76400.7
76607.5
76905.5
77340.4
77984.1
78951.5
80428.5
82722.2
86348.3
92190.6
101800
117986
146069
196863
294917
506144
1.05782e+06
3.10219e+06
1.79872e+07
7783.49
22046.6
33659.1
42276.8
48287.7
52321
54966.6
56682.7
57792.7
58512.7
58983.1
59293.6
59500.9
59641.2
59737.6
59805
59853.1
59888.3
59915.2
59936.8
59955.6
59973.4
59992
60013.1
60038.8
60071.5
60114.2
60171.3
60248.7
60354.6
60500.9
60705.2
60992.8
61402.1
61991
62848.2
64112
66000.3
68861.8
73264.3
80150.1
91124.5
109022
139121
192085
292177
504965
1.05751e+06
3.10215e+06
1.79872e+07
5682.94
16210.7
25084
32037.5
37153.4
40776.1
43279.2
44984.1
46137.3
46916.5
47444.6
47804.6
48052.2
48224.1
48344.9
48431
48493.6
48540.3
48576.3
48605.7
48631.5
48656
48681.8
48711.1
48746.6
48791.5
48850.2
48928.1
49033.1
49175.8
49371.4
49641.8
50018.4
50547.7
51298.3
52373.6
53930.2
56209.7
59588.7
64665.1
72407.9
84435.3
103566
135018
189333
290612
504271
1.0573e+06
3.10212e+06
1.79872e+07
4305.68
12309.6
19233.8
24873.2
29211.8
32425.7
34746.7
36395.5
37555.7
38368.6
38938.1
39338.3
39620.9
39822
39966.5
40071.5
40149.2
40208
40254.1
40292.2
40325.8
40358.2
40392.2
40430.9
40477.6
40536.7
40613.4
40714.8
40850.4
41033.4
41282.3
41623
42092.5
42744.2
43655.7
44941.5
46771.8
49403.1
53227.8
58856.8
67264.1
80057
100023
132322
187423
289361
503533
1.05696e+06
3.10205e+06
1.79872e+07
3372.6
9622.18
15130.5
19744.8
23431
26266.2
28391.8
29957.7
31098.2
31923.7
32519.6
32949.9
33261.6
33488.4
33654.8
33778
33870.6
33941.9
33998.5
34045.8
34088.1
34129
34172.1
34221.2
34280.5
34354.9
34451.2
34577.8
34746
34971.4
35275.4
35687.5
36249.5
37020.4
38084.7
39564.4
41637.9
44569.6
48757.7
54814
63703.4
77002.3
97457.1
130171
185556
287637
501917
1.05568e+06
3.10149e+06
1.79872e+07
2724.81
7726.86
12191.9
16006.2
19154.9
21654.3
23588
25057.7
26161.2
26983.1
27592.5
28043.7
28378.1
28626.6
28812.4
28952.4
29059.4
29142.9
29210.2
29267.1
29318.4
29368.4
29421.3
29481.4
29553.8
29644.6
29761.3
29913.9
30115.5
30383.6
30742.3
31224.3
31874.9
32757.3
33960.6
35611.3
37891.4
41066.8
45533.6
51896.7
61106.8
74674.9
95293.4
127969
182979
284203
497130
1.04963e+06
3.09628e+06
1.79872e+07
2266.98
6366.02
10054.1
13253.7
15955.9
18162.4
19916.6
21286.6
22342.8
23149.7
23762.6
24226.7
24577.8
24843.8
25046.2
25201.3
25321.6
25416.8
25494.5
25561
25621.4
25680.7
25743.6
25815.2
25901.1
26008.5
26145.8
26324.5
26558.9
26868.7
27279.9
27827.8
28560.3
29543.5
30869
32665.1
35113.3
38475.8
43138.6
49692.7
59108.8
72724.3
93192.3
125313
178941
277026
482967
1.02053e+06
3.04091e+06
1.79872e+07
1939.36
5375.92
8480.05
11203.5
13539.2
15496.3
17089
18362.3
19366.7
20151.4
20760.3
21230.7
21593.3
21872.9
22089.1
22257.3
22389.6
22495.7
22583.3
22659
22728.5
22797
22869.9
22952.8
23052.2
23175.9
23333.5
23537.3
23803.3
24152.4
24612.5
25220.5
26026.5
27098.1
28527.8
30443.5
33024
36522.9
41305
47901.1
54543.7
67587.7
85811.6
113835
159351
239350
397244
770890
2.00891e+06
1.20425e+07
1703.08
4649.01
7311.95
9667.21
11705.6
13449.2
14900.9
16084.4
17036.8
17795.5
18395.3
18867
19236.8
19526.5
19753.8
19933
20075.8
20191.7
20288.5
20372.9
20451
20528.4
20611
20705
20817.3
20956.7
21133.4
21360.9
21656.2
22041.5
22545.8
23207.4
24077.5
25224.4
26740.7
28752.7
31435.6
35035.7
39908.1
46580.2
53261
66090.1
84004.1
111303
155274
232026
383254
747049
2.01433e+06
1.24057e+07
1531.92
4112.2
6440.49
8510.18
10316
11876.1
13204.8
14307.3
15210
15941.3
16529.1
16998.6
17372.3
17669.1
17904.9
18093.3
18245.1
18369.6
18474.6
18567.1
18653.2
18739
18830.7
18935
19059.6
19213.5
19408
19657.2
19979.1
20396.6
20939.8
21648
22572.6
23782.2
25368.6
27456.2
30215.9
33887.6
38816
45512.2
52206.9
64810.9
82420.6
109088
151852
226461
373638
730682
1.98889e+06
1.23852e+07
1407.85
3714.81
5789.11
7638.32
9262.27
10671
11890.5
12922.7
13780
14484.6
15059
15524.1
15899.1
16200.6
16443
16638.6
16797.9
16929.8
17042.1
17141.8
17235.2
17328.7
17428.8
17542.6
17678.2
17845.4
18055.9
18324.4
18669.6
19115.3
19692
20439.5
21409.4
22670
24311.8
26456.8
29272.1
32991
37948.4
44639.9
51325
63715.8
81039.6
107141
148710
233688
388322
766442
2.12099e+06
1.69429e+07
1318.14
3420.96
5303.05
6982.9
8464.73
9756.37
10880
11849.8
12666.7
13346.5
13907.5
14367
14741.6
15046
15293.2
15494.5
15660
15798.1
15916.7
16022.6
16122.4
16222.7
16330.3
16452.5
16598
16776.8
17001.3
17286.6
17651.9
18121.4
18726.2
19506.1
20512.7
21813.6
23498
25685.4
28538.9
32285.8
37251.9
43919.5
50577.1
62768.5
79830
105455
146167
229237
379601
745897
2.07426e+06
1.69163e+07
1253.78
3205.03
4942.76
6493.91
7866.33
9068.27
10113.8
11026.4
11809.1
12467.2
13015.6
13469.3
13842.5
14148.5
14399
14604.8
14775.1
14918.4
15042.1
15153.3
15258.6
15364.8
15478.7
15608.3
15762.2
15951
16187.3
16486.7
16868.8
17358
17985.7
18791.6
19827.1
21159
22875
25092.4
27970.3
31730.4
36690.3
43319.8
49935.6
61934.6
78744.6
103948
143966
225694
374048
737853
2.06703e+06
1.69157e+07
1208.27
3048.61
4679.67
6134.76
7424.65
8558.22
9546.85
10409.7
11161.1
11800.9
12338.4
12786.6
13158.1
13464.9
13717.7
13926.8
14100.8
14248.1
14376.1
14491.6
14601.4
14712.4
14831.7
14967.3
15128.2
15325.2
15571.2
15882
16277.5
16782.5
17428.1
18254.2
19311.8
20666.7
22405.5
24642.8
27534.7
31297.3
36240.2
42821.4
49385.4
61185.8
77727.6
102479
141743
221843
367356
723892
2.02521e+06
1.67943e+07
1177.04
2938.6
4493.28
5879.04
7108.87
8192.28
9139.88
9965.71
10688.9
11313.7
11842.5
12286.1
12655.9
12962.8
13217.3
13428.6
13605.5
13755.8
13886.9
14005.8
14119.1
14233.9
14357.4
14497.7
14664.1
14867.5
15120.9
15440.6
15846.5
16363.3
17022.4
17863.5
18937.1
20308.4
22062.7
24312.6
27210.9
30969.2
35889.4
42417.5
48927.5
60513.3
76751.8
100954
139198
216708
356988
696661
2.08112e+06
1.1745e+07
1156.87
2865.89
4369.26
5708.17
6897.15
7946.25
8865.75
9667.83
10368.7
10980.5
11503.2
11943.5
12311.9
12618.9
12874.3
13087.2
13266
13418.5
13551.9
13673.1
13789
13906.5
14033
14176.7
14347
14554.9
14813.7
15139.7
15552.8
16077.9
16746.4
17597.8
18682.2
20064.4
21828.5
24085.6
26985.9
30737
35634.4
42112.6
48580
59940
75855.9
99416.3
136317
209963
341496
658786
1.99333e+06
1.15501e+07
1145.59
2824.08
4297.44
5608.81
6773.67
7802.41
8705.26
9493.63
10181.4
10783.3
11302.1
11740.4
12108
12415.1
12671
12884.8
13064.7
13218.5
13353.2
13475.9
13593.3
13712.5
13840.8
13986.6
14159.3
14370
14632.1
14961.8
15379.3
15909.4
16583.5
17441
18531.8
19920.2
21689.7
23950.4
26850.7
30595.6
35475.6
41917.1
48368.2
59518.6
75153.6
98108.1
133590
202704
320655
584230
1.29235e+06
5.48609e+06
1142.38
2810.99
4274.45
5576.67
6733.47
7755.41
8652.7
9436.56
10120.1
10718
11235.2
11673.1
12040.5
12347.5
12603.6
12817.7
12998
13152.2
13287.4
13410.6
13528.5
13648.2
13777.2
13923.7
14097.2
14308.8
14571.9
14902.9
15321.9
15853.7
16529.6
17389.1
18482
19872.4
21643.6
23905.4
26805.5
30547.8
35421.4
41849.2
48324.5
59317.3
74804.1
97421.9
132055
198707
307258
524443
965639
1.99321e+06
1146.99
2825.88
4299.19
5610.34
6774.94
7803.44
8706.07
9494.26
10181.8
10783.6
11302.3
11740.7
12108.3
12415.3
12671.2
12885
13064.9
13218.6
13353.4
13476
13593.4
13712.6
13840.9
13986.7
14159.4
14370.1
14632.1
14961.8
15379.3
15909.4
16583.5
17440.9
18531.7
19920.1
21689.5
23950.2
26850.5
30595.3
35475.3
41916.7
48455.8
59384.8
74922.5
97657.1
132590
201196
315758
563209
1.23219e+06
4.37478e+06
1159.64
2869.42
4372.67
5711.15
6899.61
7948.21
8867.29
9669
10369.5
10981.1
11503.7
11943.9
12312.4
12619.3
12874.7
13087.6
13266.4
13418.8
13552.2
13673.4
13789.2
13906.7
14033.2
14176.9
14347.1
14555
14813.8
15139.7
15552.7
16077.8
16746.3
17597.6
18682
20064.2
21828.2
24085.2
26985.5
30736.6
35633.8
42111.7
48739.6
59704.9
75468.8
98706.8
134871
208076
336562
643806
1.64023e+06
1.17107e+07
1181.1
2943.76
4498.22
5883.32
7112.38
8195.05
9142
9967.27
10690
11314.6
11843.2
12286.7
12656.5
12963.4
13217.8
13429.1
13605.9
13756.2
13887.3
14006.2
14119.5
14234.2
14357.7
14498
14664.3
14867.6
15121
15440.6
15846.4
16363.1
17022.2
17863.2
18936.7
20308
22062.2
24312.1
27210.4
30968.6
35888.7
42416.3
49145.5
60208.8
76283.6
100167
137764
215126
353643
689355
1.75249e+06
1.16814e+07
1213.53
3055.24
4685.98
6140.17
7429.03
8561.61
9549.4
10411.4
11162.5
11802
12339.4
12787.5
13158.9
13465.5
13718.4
13927.3
14101.4
14248.6
14376.5
14492
14601.8
14712.8
14832
14967.6
15128.4
15325.3
15571.2
15882
16277.4
16782.3
17427.8
18253.8
19311.3
20666.2
22404.9
24642.2
27534
31296.6
36239.3
42820.2
49650.7
60836.5
77229.1
101716
140502
220663
365099
717859
1.97261e+06
1.59794e+07
1260.09
3212.95
4950.23
6500.22
7871.35
9072.07
10116.6
11028.3
11810.6
12468.4
13016.7
13470.2
13843.4
14149.2
14399.7
14605.4
14775.7
14918.9
15042.6
15153.8
15259.1
15365.2
15479.1
15608.6
15762.5
15951.2
16187.4
16486.7
16868.6
17357.8
17985.3
18791.1
19826.5
21158.4
22874.4
25091.7
27969.5
31729.6
36689.3
43318.6
50245.5
61548.1
78226
103209
142865
224778
372622
735561
2.05948e+06
1.69101e+07
1325.35
3429.93
5311.41
6989.86
8470.13
9760.34
10882.8
11851.9
12668.4
13347.9
13908.7
14368.1
14742.5
15046.8
15293.9
15495.2
15660.6
15798.7
15917.2
16023.1
16122.9
16223.1
16330.6
16452.8
16598.2
16777
17001.3
17286.5
17651.7
18121.1
18725.8
19505.6
20512.1
21812.9
23497.2
25684.6
28538.1
32285
37251
43918.4
50937.3
62337.2
79271.9
104682
145036
228294
378066
743630
2.07217e+06
1.69162e+07
1415.75
3724.55
5798.06
7645.61
9267.76
10674.8
11893.3
12924.9
13781.7
14486
15060.2
15525.2
15900
16201.4
16443.7
16639.3
16798.6
16930.4
17042.7
17142.3
17235.7
17329.1
17429.2
17542.9
17678.5
17845.5
18055.9
18324.3
18669.4
19114.9
19691.5
20438.9
21408.7
22669.2
24310.9
26456
29271.3
32990.2
37947.6
44639
51748.2
63224.2
80413.3
106264
147369
232438
385641
758812
2.09678e+06
1.69198e+07
1540.3
4122.4
6449.67
8517.46
10321.3
11879.8
13207.5
14309.4
15211.7
15942.7
16530.2
16999.6
17373.1
17669.8
17905.6
18093.9
18245.7
18370.1
18475.1
18567.5
18653.6
18739.4
18831.1
18935.3
19059.8
19213.6
19408
19657.1
19978.8
20396.2
20939.3
21647.3
22571.9
23781.4
25367.8
27455.3
30215
33886.8
38815.2
45511.4
52710.5
64241.5
81705.1
108081
150261
223937
368281
716123
1.93333e+06
1.21638e+07
1711.69
4659.3
7321
9674.13
11710.4
13452.6
14903.5
16086.4
17038.3
17796.7
18396.3
18867.9
19237.6
19527.2
19754.4
19933.6
20076.3
20192.2
20288.9
20373.3
20451.4
20528.8
20611.3
20705.2
20817.5
20956.7
21133.4
21360.8
21656
22041.1
22545.3
23206.8
24076.8
25223.6
26739.8
28751.8
31434.7
35034.9
39907.4
46579.6
53869.6
65424.3
83184.2
110157
153502
229124
378423
739969
2.00776e+06
1.24058e+07
1947.96
5385.95
8488.59
11209.7
13543.4
15499.3
17091.2
18364
19368
20152.5
20761.1
21231.4
21593.9
21873.5
22089.6
22257.8
22390
22496.1
22583.7
22659.3
22728.8
22797.3
22870.1
22953
23052.3
23175.9
23333.4
23537.1
23803
24152
24612
25219.9
26025.8
27097.3
28527
30442.7
33023.2
36522.1
41304.4
47900.6
55312.8
66810
84879.8
112529
157217
235377
389156
755749
2.01698e+06
1.23779e+07
2275.29
6375.43
10061.8
13259.1
15959.5
18165
19918.5
21288
22343.8
23150.5
23763.2
24227.2
24578.2
24844.2
25046.6
25201.7
25321.9
25417.1
25494.8
25561.3
25621.7
25680.9
25743.8
25815.3
25901.2
26008.5
26145.8
26324.3
26558.7
26868.4
27279.5
27827.2
28559.6
29542.8
30868.3
32664.3
35112.6
38475.1
43138
49692.3
59108.5
72724.1
93192.1
125313
178941
277025
482967
1.02053e+06
3.04091e+06
1.79872e+07
2732.58
7735.34
12198.5
16010.5
19157.9
21656.4
23589.4
25058.7
26161.9
26983.6
27592.9
28044.1
28378.4
28626.9
28812.6
28952.6
29059.6
29143.1
29210.4
29267.3
29318.5
29368.5
29421.4
29481.5
29553.9
29644.6
29761.3
29913.8
30115.3
30383.4
30741.9
31223.8
31874.3
32756.7
33960
35610.6
37890.8
41066.2
45533.1
51896.3
61106.5
74674.7
95293.3
127969
182979
284203
497130
1.04963e+06
3.09628e+06
1.79872e+07
3379.62
9629.48
15135.8
19748.1
23433.3
26267.7
28392.8
29958.3
31098.7
31924
32519.8
32950.1
33261.7
33488.6
33654.9
33778.1
33870.7
33942
33998.6
34045.9
34088.2
34129.1
34172.2
34221.3
34280.5
34354.9
34451.2
34577.7
34745.8
34971.2
35275.1
35687.2
36249.1
37020
38084.2
39563.8
41637.3
44569.1
48757.3
54813.7
63703.2
77002.2
97457
130171
185556
287637
501917
1.05568e+06
3.10149e+06
1.79872e+07
4311.77
12315.5
19237.8
24875.6
29213.3
32426.7
34747.3
36395.9
37555.9
38368.7
38938.2
39338.3
39620.9
39822
39966.5
40071.5
40149.2
40208
40254.1
40292.2
40325.8
40358.2
40392.2
40430.8
40477.6
40536.7
40613.3
40714.7
40850.3
41033.3
41282.1
41622.8
42092.2
42743.8
43655.4
44941.1
46771.4
49402.7
53227.4
58856.5
67263.9
80056.9
100023
132322
187423
289361
503533
1.05696e+06
3.10205e+06
1.79872e+07
5687.97
16215.2
25086.7
32039.1
37154.3
40776.5
43279.4
44984.1
46137.3
46916.4
47444.5
47804.5
48052.1
48224
48344.8
48431
48493.6
48540.2
48576.3
48605.7
48631.4
48656
48681.7
48711
48746.5
48791.5
48850.1
48928.1
49033
49175.7
49371.3
49641.6
50018.2
50547.5
51298.1
52373.3
53929.9
56209.4
59588.5
64664.8
72407.7
84435.2
103566
135018
189333
290612
504271
1.0573e+06
3.10212e+06
1.79872e+07
7787.37
22049.5
33660.5
42277.5
48288.1
52321.1
54966.5
56682.6
57792.5
58512.5
58982.9
59293.4
59500.7
59641
59737.5
59804.9
59852.9
59888.2
59915.1
59936.7
59955.5
59973.3
59991.9
60013.1
60038.8
60071.4
60114.2
60171.3
60248.6
60354.5
60500.9
60705.1
60992.7
61402
61990.9
62848.1
64111.9
66000.1
68861.6
73264.1
80150
91124.4
109022
139121
192085
292177
504965
1.05751e+06
3.10215e+06
1.79872e+07
11131.5
31103.9
46564.7
57302.6
64300.7
68697
71408
73069.9
74091.4
74724.7
75122.1
75375.3
75539.3
75647.4
75719.9
75769.5
75804.3
75829.5
75848.4
75863.4
75876.3
75888.5
75901.2
75915.7
75933.3
75955.6
75985.1
76024.6
76078.3
76152.4
76255.5
76400.8
76607.5
76905.5
77340.3
77984.1
78951.4
80428.4
82722.1
86348.2
92190.5
101800
117986
146069
196863
294917
506144
1.05782e+06
3.10219e+06
1.79872e+07
16779.7
45849.9
66777
80115.7
88098
92725.5
95377.5
96900.1
97783.5
98304.2
98617.1
98809
98929.4
99006.6
99057.2
99091.1
99114.5
99131.1
99143.4
99153.2
99161.5
99169.3
99177.4
99186.6
99197.8
99212.2
99231
99256.5
99291.2
99339.4
99406.9
99502.8
99640.6
99841.7
100139
100587
101274
102347
104057
106844
111490
119428
133354
158539
205917
300432
508665
1.05852e+06
3.10227e+06
1.79872e+07
27091.3
71378.7
99976.2
116279
125042
129648
132067
133355
134055
134445
134669
134801
134881
134931
134963
134984
134998
135008
135015
135021
135026
135031
135035
135041
135047
135056
135067
135082
135103
135131
135171
135229
135313
135436
135620
135903
136345
137051
138208
140156
143532
149560
160675
181887
224028
312396
514671
1.06036e+06
3.10248e+06
1.79872e+07
47917.6
118605
157762
176976
185981
190175
192160
193128
193617
193874
194014
194093
194140
194168
194186
194197
194205
194210
194214
194217
194220
194222
194225
194228
194231
194236
194242
194250
194260
194276
194297
194327
194372
194438
194539
194696
194944
195351
196037
197231
199387
203432
211342
227492
262029
340007
530309
1.06585e+06
3.1032e+06
1.79872e+07
96114.4
214076
266518
287531
295781
299086
300467
301075
301358
301498
301570
301610
301632
301646
301654
301659
301663
301665
301667
301668
301669
301671
301672
301673
301675
301677
301680
301683
301688
301695
301705
301719
301739
301769
301815
301887
302004
302198
302535
303140
304279
306533
311242
321670
346213
407822
574731
1.08478e+06
3.10622e+06
1.79872e+07
228613
431007
496275
516081
522233
524267
524998
525285
525408
525464
525492
525507
525515
525520
525523
525525
525526
525527
525528
525528
525529
525529
525530
525531
525531
525532
525534
525535
525537
525540
525543
525548
525556
525566
525583
525609
525650
525721
525846
526077
526527
527466
529566
534665
548179
587437
712735
1.16002e+06
3.12319e+06
1.79872e+07
679416
1.01713e+06
1.08473e+06
1.09848e+06
1.10156e+06
1.10235e+06
1.10259e+06
1.10267e+06
1.1027e+06
1.10272e+06
1.10272e+06
1.10273e+06
1.10273e+06
1.10273e+06
1.10273e+06
1.10273e+06
1.10273e+06
1.10273e+06
1.10273e+06
1.10273e+06
1.10273e+06
1.10273e+06
1.10273e+06
1.10273e+06
1.10273e+06
1.10273e+06
1.10274e+06
1.10274e+06
1.10274e+06
1.10274e+06
1.10274e+06
1.10274e+06
1.10274e+06
1.10275e+06
1.10275e+06
1.10276e+06
1.10277e+06
1.10278e+06
1.10281e+06
1.10287e+06
1.10298e+06
1.10322e+06
1.10379e+06
1.10531e+06
1.1099e+06
1.12603e+06
1.19192e+06
1.50335e+06
3.24976e+06
1.79872e+07
2.70012e+06
3.18574e+06
3.23008e+06
3.23475e+06
3.23538e+06
3.23549e+06
3.23552e+06
3.23553e+06
3.23554e+06
3.23554e+06
3.23554e+06
3.23554e+06
3.23554e+06
3.23554e+06
3.23554e+06
3.23554e+06
3.23554e+06
3.23554e+06
3.23554e+06
3.23554e+06
3.23554e+06
3.23554e+06
3.23554e+06
3.23554e+06
3.23555e+06
3.23555e+06
3.23555e+06
3.23555e+06
3.23555e+06
3.23555e+06
3.23555e+06
3.23555e+06
3.23555e+06
3.23556e+06
3.23556e+06
3.23556e+06
3.23556e+06
3.23557e+06
3.23557e+06
3.23558e+06
3.23559e+06
3.23562e+06
3.23568e+06
3.23586e+06
3.23645e+06
3.23893e+06
3.25307e+06
3.36212e+06
4.43128e+06
1.79872e+07
1.87595e+07
1.87595e+07
1.87595e+07
1.87595e+07
1.87595e+07
1.87595e+07
1.87595e+07
1.87595e+07
1.87595e+07
1.87595e+07
1.87595e+07
1.87595e+07
1.87595e+07
1.87595e+07
1.87595e+07
1.87595e+07
1.87595e+07
1.87595e+07
1.87595e+07
1.87595e+07
1.87595e+07
1.87595e+07
1.87595e+07
1.87595e+07
1.87595e+07
1.87595e+07
1.87595e+07
1.87595e+07
1.87595e+07
1.87595e+07
1.87595e+07
1.87595e+07
1.87595e+07
1.87595e+07
1.87595e+07
1.87595e+07
1.87595e+07
1.87595e+07
1.87595e+07
1.87595e+07
1.87595e+07
1.87595e+07
1.87595e+07
1.87595e+07
1.87595e+07
1.87595e+07
1.87595e+07
1.87595e+07
1.87595e+07
1.87595e+07
6.60282e+07
7.16168e+07
6.84393e+07
6.82963e+07
7.1025e+07
5.89826e+07
6.90836e+07
6.75285e+07
6.77837e+07
6.77225e+07
6.76644e+07
6.76593e+07
6.75397e+07
6.73415e+07
6.47307e+07
8.06767e+07
6.5559e+07
6.76533e+07
6.76659e+07
6.76639e+07
3.03968e+06
3.34291e+06
3.30236e+06
3.30217e+06
3.35637e+06
3.2804e+06
3.35833e+06
3.30661e+06
3.32982e+06
3.32114e+06
3.319e+06
3.32064e+06
3.32004e+06
3.31746e+06
3.26947e+06
3.37703e+06
3.2762e+06
3.33789e+06
3.32342e+06
3.25287e+06
9.65331e+06
1.49098e+07
1.13254e+07
1.06223e+07
1.27504e+07
9.31906e+06
1.1931e+07
1.20122e+07
1.19585e+07
1.19517e+07
1.19506e+07
1.19504e+07
1.19327e+07
1.18605e+07
1.2076e+07
1.53624e+07
1.10935e+07
1.16001e+07
1.1949e+07
1.19095e+07
1.87595e+07
1.87595e+07
1.87595e+07
1.87595e+07
1.87595e+07
1.87595e+07
1.87595e+07
1.87595e+07
1.87595e+07
1.87595e+07
1.87595e+07
1.87595e+07
1.87595e+07
1.87595e+07
1.87595e+07
1.87595e+07
1.87595e+07
1.87595e+07
1.87595e+07
1.87595e+07
1.87595e+07
1.87595e+07
1.87595e+07
1.87595e+07
1.87595e+07
1.87595e+07
1.87595e+07
1.87595e+07
1.87595e+07
1.87595e+07
1.87595e+07
1.87595e+07
1.87595e+07
1.87595e+07
1.87595e+07
1.87595e+07
1.87595e+07
1.87595e+07
1.87595e+07
1.87595e+07
1.87595e+07
1.87595e+07
1.87595e+07
1.87595e+07
1.87595e+07
1.87595e+07
1.87595e+07
1.87595e+07
1.87595e+07
1.87595e+07
1.87595e+07
1.87595e+07
1.87595e+07
1.87595e+07
1.87595e+07
1.87595e+07
1.87595e+07
1.87595e+07
1.87595e+07
1.87595e+07
1.87595e+07
1.87595e+07
1.87595e+07
1.87595e+07
1.87595e+07
1.87595e+07
1.87595e+07
1.87595e+07
1.87595e+07
1.87595e+07
1.87595e+07
1.87595e+07
1.87595e+07
1.87595e+07
1.87595e+07
1.87595e+07
1.87595e+07
1.87595e+07
1.87595e+07
1.87595e+07
1.87595e+07
1.87595e+07
1.87595e+07
1.87595e+07
1.87595e+07
1.87595e+07
1.87595e+07
1.87595e+07
1.87595e+07
1.87595e+07
1.87595e+07
1.87595e+07
1.87595e+07
1.87595e+07
1.87595e+07
1.87595e+07
1.87595e+07
1.87595e+07
1.87595e+07
1.87595e+07
1.79872e+07
4.43128e+06
3.36208e+06
3.25302e+06
3.23888e+06
3.2364e+06
3.23582e+06
3.23564e+06
3.23558e+06
3.23555e+06
3.23554e+06
3.23554e+06
3.23554e+06
3.23554e+06
3.23554e+06
3.23553e+06
3.23554e+06
3.23554e+06
3.23554e+06
3.23554e+06
3.23554e+06
3.23554e+06
3.23554e+06
3.23554e+06
3.23554e+06
3.23554e+06
3.23554e+06
3.23554e+06
3.23554e+06
3.23554e+06
3.23554e+06
3.23554e+06
3.23554e+06
3.23554e+06
3.23554e+06
3.23554e+06
3.23554e+06
3.23554e+06
3.23554e+06
3.23554e+06
3.23554e+06
3.23554e+06
3.23554e+06
3.23554e+06
3.23554e+06
3.23554e+06
3.23554e+06
3.23554e+06
3.23554e+06
3.23554e+06
3.23554e+06
3.23554e+06
3.23554e+06
3.23554e+06
3.23554e+06
3.23554e+06
3.23554e+06
3.23554e+06
3.23554e+06
3.23554e+06
3.23554e+06
3.23554e+06
3.23554e+06
3.23554e+06
3.23554e+06
3.23554e+06
3.23554e+06
3.23554e+06
3.23554e+06
3.23554e+06
3.23554e+06
3.23554e+06
3.23554e+06
3.23554e+06
3.23554e+06
3.23554e+06
3.23554e+06
3.23554e+06
3.23554e+06
3.23554e+06
3.23554e+06
3.23554e+06
3.23554e+06
3.23554e+06
3.23554e+06
3.23554e+06
3.23554e+06
3.23554e+06
3.23554e+06
3.23554e+06
3.23554e+06
3.23554e+06
3.23554e+06
3.23554e+06
3.23554e+06
3.23554e+06
3.23554e+06
3.23554e+06
3.23554e+06
3.23554e+06
1.79872e+07
3.2498e+06
1.50335e+06
1.1919e+06
1.12601e+06
1.10988e+06
1.10528e+06
1.10377e+06
1.1032e+06
1.10296e+06
1.10285e+06
1.10279e+06
1.10276e+06
1.10275e+06
1.10274e+06
1.10274e+06
1.10273e+06
1.10273e+06
1.10273e+06
1.10273e+06
1.10273e+06
1.10273e+06
1.10273e+06
1.10273e+06
1.10273e+06
1.10273e+06
1.10273e+06
1.10273e+06
1.10273e+06
1.10273e+06
1.10273e+06
1.10273e+06
1.10273e+06
1.10273e+06
1.10273e+06
1.10273e+06
1.10273e+06
1.10273e+06
1.10273e+06
1.10273e+06
1.10273e+06
1.10273e+06
1.10273e+06
1.10273e+06
1.10273e+06
1.10273e+06
1.10273e+06
1.10273e+06
1.10273e+06
1.10273e+06
1.10273e+06
1.10273e+06
1.10273e+06
1.10273e+06
1.10273e+06
1.10273e+06
1.10273e+06
1.10273e+06
1.10273e+06
1.10273e+06
1.10273e+06
1.10273e+06
1.10273e+06
1.10273e+06
1.10273e+06
1.10273e+06
1.10273e+06
1.10273e+06
1.10273e+06
1.10273e+06
1.10273e+06
1.10273e+06
1.10273e+06
1.10273e+06
1.10273e+06
1.10273e+06
1.10273e+06
1.10273e+06
1.10273e+06
1.10273e+06
1.10273e+06
1.10273e+06
1.10273e+06
1.10273e+06
1.10273e+06
1.10273e+06
1.10273e+06
1.10273e+06
1.10273e+06
1.10273e+06
1.10273e+06
1.10273e+06
1.10273e+06
1.10273e+06
1.10273e+06
1.10273e+06
1.10273e+06
1.10273e+06
1.10273e+06
1.10273e+06
1.79872e+07
3.12324e+06
1.16004e+06
712736
587425
548161
534643
529544
527443
526506
526057
525828
525705
525636
525596
525572
525557
525547
525541
525538
525535
525533
525532
525531
525531
525530
525530
525530
525529
525529
525529
525529
525529
525529
525529
525529
525529
525529
525529
525529
525529
525529
525529
525529
525529
525528
525528
525528
525528
525528
525528
525528
525528
525528
525528
525528
525528
525528
525528
525528
525528
525528
525527
525527
525527
525527
525527
525527
525527
525527
525527
525527
525527
525527
525527
525527
525527
525527
525527
525527
525527
525527
525527
525527
525527
525527
525527
525527
525527
525527
525527
525527
525528
525528
525528
525528
525528
525528
525528
525528
1.79872e+07
3.10628e+06
1.0848e+06
574746
407824
346205
321657
311226
306516
304263
303125
302522
302187
301995
301881
301811
301766
301738
301719
301707
301698
301692
301688
301685
301682
301680
301679
301677
301676
301675
301675
301674
301674
301673
301673
301673
301672
301672
301672
301672
301672
301672
301671
301671
301671
301671
301671
301671
301670
301670
301670
301670
301670
301669
301669
301669
301669
301669
301669
301669
301668
301668
301668
301668
301668
301668
301668
301668
301668
301668
301668
301668
301668
301668
301668
301668
301668
301668
301668
301668
301668
301668
301668
301668
301668
301668
301668
301668
301668
301668
301668
301668
301668
301668
301668
301668
301668
301668
301669
301669
1.79872e+07
3.10326e+06
1.06588e+06
530334
340021
262033
227489
211335
203423
199378
197224
196033
195351
194947
194702
194549
194451
194387
194344
194315
194295
194280
194270
194261
194255
194250
194246
194243
194240
194237
194235
194234
194232
194231
194230
194229
194229
194228
194228
194227
194227
194226
194226
194226
194225
194225
194225
194224
194224
194223
194223
194223
194222
194222
194221
194221
194221
194221
194220
194220
194220
194220
194220
194220
194220
194219
194219
194219
194219
194219
194219
194219
194219
194219
194219
194219
194219
194219
194219
194219
194219
194219
194219
194219
194219
194219
194219
194219
194219
194219
194220
194220
194220
194220
194220
194220
194220
194220
194220
194220
1.79872e+07
3.10254e+06
1.06039e+06
514702
312419
224043
181895
160680
149564
143537
140165
138221
137069
136368
135932
135655
135475
135355
135275
135219
135179
135151
135129
135113
135100
135090
135081
135074
135068
135063
135058
135055
135052
135049
135047
135045
135044
135043
135042
135041
135040
135039
135038
135038
135037
135036
135036
135035
135034
135033
135033
135032
135031
135031
135030
135029
135029
135029
135028
135028
135028
135027
135027
135027
135027
135027
135027
135027
135027
135026
135026
135026
135026
135026
135026
135026
135026
135026
135026
135026
135026
135026
135026
135026
135027
135027
135027
135027
135027
135027
135027
135027
135027
135027
135027
135027
135027
135027
135028
135028
1.79872e+07
3.10233e+06
1.05856e+06
508702
300463
205943
158560
133373
119448
111514
106874
104095
102395
101332
100655
100215
99925.1
99729.9
99596.1
99502.4
99435.3
99385.9
99348.6
99319.5
99296.2
99277.2
99261.4
99248.2
99236.9
99227.4
99219.3
99212.5
99206.8
99202.1
99198.1
99194.8
99192.1
99189.9
99187.9
99186.3
99184.8
99183.5
99182.3
99181.1
99180
99178.8
99177.7
99176.5
99175.3
99174.1
99173
99171.9
99170.8
99169.8
99168.9
99168
99167.2
99166.6
99166
99165.5
99165
99164.7
99164.4
99164.2
99164
99163.8
99163.7
99163.6
99163.5
99163.5
99163.4
99163.4
99163.4
99163.4
99163.4
99163.4
99163.4
99163.4
99163.4
99163.4
99163.4
99163.4
99163.4
99163.4
99163.5
99163.5
99163.6
99163.6
99163.7
99163.8
99163.9
99164
99164.1
99164.2
99164.3
99164.5
99164.6
99164.7
99164.8