/*--------------------------------*- C++ -*----------------------------------*\
| =========                 |                                                 |
| \\      /  F ield         | foam-extend: Open Source CFD                    |
|  \\    /   O peration     | Version:     4.0                                |
|   \\  /    A nd           | Web:         http://www.foam-extend.org         |
|    \\/     M anipulation  |                                                 |
\*---------------------------------------------------------------------------*/
FoamFile
{
    version     2.0;
    format      ascii;
    class       surfaceScalarField;
    location    "0.001";
    object      phi;
}
// * * * * * * * * * * * * * * * * * * * * * * * * * * * * * * * * * * * * * //

dimensions      [0 3 -1 0 0 0 0];

internalField   nonuniform List<scalar> 
57362
(
5.58241e-11
3.31502e-15
5.58141e-11
9.99567e-15
5.57972e-11
1.68289e-14
5.57733e-11
2.39189e-14
5.57419e-11
3.13732e-14
5.57026e-11
3.93049e-14
5.56548e-11
4.78333e-14
5.55977e-11
5.70862e-14
5.55305e-11
6.72012e-14
5.54522e-11
7.83277e-14
5.53615e-11
9.06282e-14
5.52572e-11
1.04281e-13
5.51378e-11
1.19481e-13
5.50013e-11
1.36444e-13
5.48459e-11
1.55404e-13
5.46693e-11
1.76621e-13
5.44689e-11
2.00381e-13
5.42418e-11
2.26994e-13
5.3985e-11
2.56801e-13
5.36948e-11
2.90171e-13
5.33673e-11
3.2751e-13
5.2998e-11
3.6924e-13
5.25822e-11
4.15838e-13
5.21144e-11
4.67766e-13
5.15888e-11
5.25581e-13
5.0999e-11
5.89736e-13
5.03381e-11
6.60892e-13
4.95986e-11
7.39388e-13
4.87726e-11
8.26035e-13
4.78515e-11
9.20864e-13
4.68267e-11
1.02493e-12
4.56888e-11
1.13763e-12
4.44285e-11
1.26042e-12
4.30365e-11
1.3916e-12
4.15036e-11
1.53319e-12
3.98212e-11
1.6819e-12
3.79812e-11
1.84036e-12
3.59772e-11
2.00341e-12
3.38037e-11
2.17392e-12
3.14579e-11
2.34519e-12
2.89388e-11
2.51945e-12
2.62489e-11
2.68936e-12
2.33936e-11
2.85562e-12
2.0382e-11
3.01123e-12
1.7227e-11
3.15521e-12
1.39452e-11
3.28161e-12
1.0557e-11
3.38846e-12
7.08557e-12
3.47134e-12
3.55728e-12
3.52842e-12
3.55734e-12
5.58248e-11
6.58083e-15
5.5815e-11
1.9843e-14
5.57984e-11
3.34083e-14
5.57748e-11
4.74835e-14
5.57439e-11
6.22826e-14
5.57052e-11
7.80298e-14
5.56581e-11
9.49625e-14
5.56018e-11
1.13335e-13
5.55356e-11
1.3342e-13
5.54584e-11
1.55515e-13
5.53691e-11
1.79943e-13
5.52663e-11
2.07059e-13
5.51485e-11
2.37251e-13
5.5014e-11
2.70947e-13
5.48608e-11
3.08616e-13
5.46866e-11
3.50776e-13
5.4489e-11
3.97993e-13
5.42651e-11
4.50888e-13
5.40117e-11
5.10145e-13
5.37253e-11
5.76497e-13
5.34021e-11
6.50758e-13
5.30375e-11
7.33772e-13
5.26268e-11
8.26498e-13
5.21647e-11
9.29861e-13
5.16453e-11
1.04498e-12
5.10622e-11
1.17278e-12
5.04085e-11
1.31459e-12
4.96767e-11
1.47108e-12
4.88589e-11
1.64395e-12
4.79464e-11
1.8332e-12
4.69305e-11
2.04109e-12
4.58016e-11
2.26629e-12
4.45504e-11
2.51198e-12
4.31672e-11
2.77445e-12
4.16426e-11
3.05831e-12
3.99678e-11
3.35633e-12
3.81342e-11
3.67472e-12
3.61352e-11
4.00204e-12
3.39646e-11
4.34546e-12
3.16195e-11
4.68997e-12
2.90982e-11
5.04171e-12
2.64031e-11
5.38428e-12
2.35392e-11
5.72043e-12
2.05155e-11
6.03492e-12
1.7345e-11
6.32651e-12
1.40443e-11
6.58249e-12
1.06341e-11
6.79917e-12
7.13846e-12
6.9673e-12
3.58417e-12
7.08318e-12
7.14188e-12
5.58433e-11
9.74991e-15
5.58338e-11
2.93988e-14
5.58177e-11
4.94972e-14
5.57948e-11
7.03517e-14
5.57648e-11
9.22799e-14
5.57272e-11
1.15614e-13
5.56815e-11
1.40707e-13
5.56269e-11
1.67936e-13
5.55626e-11
1.97705e-13
5.54876e-11
2.30458e-13
5.54009e-11
2.66674e-13
5.53011e-11
3.0688e-13
5.51867e-11
3.51654e-13
5.5056e-11
4.01633e-13
5.49071e-11
4.57516e-13
5.47377e-11
5.20073e-13
5.45456e-11
5.90153e-13
5.43278e-11
6.68681e-13
5.40812e-11
7.5668e-13
5.38024e-11
8.55248e-13
5.34876e-11
9.65606e-13
5.31323e-11
1.08902e-12
5.27318e-11
1.22695e-12
5.22808e-11
1.38076e-12
5.17736e-11
1.55219e-12
5.12037e-11
1.74259e-12
5.05643e-11
1.95403e-12
4.98477e-11
2.18754e-12
4.90459e-11
2.44571e-12
4.81503e-11
2.72858e-12
4.71518e-11
3.0397e-12
4.60406e-11
3.37697e-12
4.48072e-11
3.74556e-12
4.34413e-11
4.13959e-12
4.19332e-11
4.56665e-12
4.02733e-11
5.01531e-12
3.84523e-11
5.49581e-12
3.6463e-11
5.99024e-12
3.42982e-11
6.51029e-12
3.19543e-11
7.03268e-12
2.94287e-11
7.56726e-12
2.6723e-11
8.08886e-12
2.38415e-11
8.60175e-12
2.07929e-11
9.0825e-12
1.75902e-11
9.529e-12
1.42503e-11
9.92167e-12
1.07948e-11
1.02545e-11
7.2486e-12
1.0513e-11
3.64019e-12
1.06914e-11
1.07818e-11
5.58623e-11
1.2775e-14
5.58532e-11
3.85207e-14
5.58378e-11
6.4856e-14
5.5816e-11
9.21835e-14
5.57874e-11
1.2092e-13
5.57515e-11
1.51501e-13
5.57078e-11
1.84391e-13
5.56556e-11
2.20083e-13
5.55942e-11
2.59113e-13
5.55226e-11
3.02059e-13
5.54397e-11
3.49555e-13
5.53443e-11
4.02293e-13
5.52349e-11
4.61037e-13
5.51099e-11
5.26624e-13
5.49674e-11
5.9998e-13
5.48054e-11
6.82121e-13
5.46213e-11
7.7417e-13
5.44127e-11
8.77354e-13
5.41763e-11
9.93031e-13
5.39089e-11
1.12266e-12
5.36066e-11
1.26787e-12
5.32652e-11
1.43036e-12
5.28801e-11
1.61207e-12
5.24459e-11
1.81485e-12
5.19571e-11
2.04104e-12
5.14072e-11
2.29248e-12
5.07893e-11
2.572e-12
5.00957e-11
2.88097e-12
4.93185e-11
3.22311e-12
4.84486e-11
3.59829e-12
4.74769e-11
4.01182e-12
4.63931e-11
4.46041e-12
4.51874e-11
4.95213e-12
4.38485e-11
5.47791e-12
4.23663e-11
6.05019e-12
4.073e-11
6.65102e-12
3.89292e-11
7.29829e-12
3.69558e-11
7.96311e-12
3.48006e-11
8.66758e-12
3.24595e-11
9.37341e-12
2.99277e-11
1.01013e-11
2.72064e-11
1.08102e-11
2.42987e-11
1.15115e-11
2.12129e-11
1.21687e-11
1.79618e-11
1.27817e-11
1.45628e-11
1.33213e-11
1.10387e-11
1.37799e-11
7.41586e-12
1.41365e-11
3.7253e-12
1.4383e-11
1.45079e-11
5.58815e-11
1.5611e-14
5.58729e-11
4.70724e-14
5.58585e-11
7.92556e-14
5.58381e-11
1.12653e-13
5.58112e-11
1.47775e-13
5.57775e-11
1.85157e-13
5.57366e-11
2.25365e-13
5.56876e-11
2.69005e-13
5.563e-11
3.16734e-13
5.55628e-11
3.69263e-13
5.5485e-11
4.27369e-13
5.53954e-11
4.91905e-13
5.52926e-11
5.63808e-13
5.51751e-11
6.44113e-13
5.50411e-11
7.33959e-13
5.48886e-11
8.34603e-13
5.47153e-11
9.47435e-13
5.45187e-11
1.07398e-12
5.42958e-11
1.21591e-12
5.40434e-11
1.37506e-12
5.37578e-11
1.55346e-12
5.34348e-11
1.75323e-12
5.30701e-11
1.9768e-12
5.26583e-11
2.22654e-12
5.2194e-11
2.50539e-12
5.16706e-11
2.81569e-12
5.10815e-11
3.16113e-12
5.04188e-11
3.54341e-12
4.96745e-11
3.96748e-12
4.88392e-11
4.43311e-12
4.79036e-11
4.94754e-12
4.68569e-11
5.50631e-12
4.56886e-11
6.1207e-12
4.43868e-11
6.77844e-12
4.294e-11
7.4972e-12
4.13366e-11
8.2526e-12
3.95647e-11
9.07031e-12
3.76145e-11
9.91118e-12
3.5475e-11
1.08068e-11
3.31402e-11
1.17058e-11
3.06035e-11
1.26373e-11
2.78641e-11
1.35473e-11
2.49236e-11
1.44511e-11
2.17891e-11
1.53011e-11
1.84734e-11
1.60965e-11
1.49943e-11
1.67988e-11
1.13761e-11
1.73972e-11
7.64774e-12
1.78637e-11
3.84339e-12
1.81865e-11
1.83504e-11
5.59176e-11
1.82161e-14
5.59097e-11
5.49282e-14
5.58965e-11
9.24841e-14
5.58777e-11
1.3146e-13
5.5853e-11
1.72452e-13
5.58221e-11
2.16087e-13
5.57844e-11
2.63028e-13
5.57394e-11
3.13986e-13
5.56864e-11
3.69729e-13
5.56246e-11
4.31092e-13
5.5553e-11
4.98987e-13
5.54704e-11
5.74417e-13
5.53758e-11
6.58486e-13
5.52675e-11
7.5241e-13
5.51439e-11
8.57538e-13
5.50031e-11
9.75353e-13
5.4843e-11
1.1075e-12
5.46612e-11
1.25579e-12
5.44549e-11
1.42222e-12
5.42209e-11
1.60898e-12
5.39559e-11
1.81848e-12
5.36558e-11
2.05328e-12
5.33163e-11
2.31633e-12
5.29323e-11
2.61047e-12
5.24985e-11
2.93933e-12
5.20083e-11
3.30573e-12
5.14553e-11
3.71431e-12
5.08314e-11
4.1671e-12
5.01288e-11
4.67053e-12
4.93375e-11
5.22408e-12
4.84483e-11
5.83763e-12
4.74492e-11
6.50478e-12
4.63297e-11
7.24182e-12
4.50762e-11
8.03098e-12
4.36765e-11
8.89948e-12
4.2117e-11
9.81076e-12
4.03837e-11
1.08074e-11
3.84655e-11
1.1828e-11
3.63471e-11
1.29299e-11
3.40225e-11
1.40295e-11
3.14794e-11
1.51852e-11
2.8717e-11
1.63097e-11
2.57345e-11
1.7438e-11
2.25374e-11
1.8499e-11
1.91388e-11
1.94986e-11
1.5556e-11
2.0383e-11
1.1816e-11
2.11398e-11
7.95019e-12
2.17311e-11
3.99755e-12
2.21412e-11
2.23496e-11
5.59531e-11
2.05509e-14
5.5946e-11
6.19692e-14
5.59342e-11
1.04342e-13
5.59173e-11
1.4832e-13
5.58952e-11
1.94578e-13
5.58674e-11
2.43826e-13
5.58336e-11
2.96814e-13
5.57933e-11
3.54348e-13
5.57457e-11
4.173e-13
5.56902e-11
4.86615e-13
5.56258e-11
5.63333e-13
5.55516e-11
6.48593e-13
5.54665e-11
7.43653e-13
5.5369e-11
8.49901e-13
5.52576e-11
9.68878e-13
5.51307e-11
1.10228e-12
5.49862e-11
1.25201e-12
5.48218e-11
1.42012e-12
5.46351e-11
1.60895e-12
5.4423e-11
1.821e-12
5.41824e-11
2.0591e-12
5.39094e-11
2.32621e-12
5.35999e-11
2.62582e-12
5.3249e-11
2.96124e-12
5.28516e-11
3.33681e-12
5.24012e-11
3.75587e-12
5.18915e-11
4.22406e-12
5.13144e-11
4.74379e-12
5.0662e-11
5.3231e-12
4.9924e-11
5.96127e-12
4.9091e-11
6.67095e-12
4.81502e-11
7.4441e-12
4.70904e-11
8.30205e-12
4.58969e-11
9.22226e-12
4.45559e-11
1.02409e-11
4.30523e-11
1.13112e-11
4.13693e-11
1.24902e-11
3.94941e-11
1.36995e-11
3.74079e-11
1.5015e-11
3.51014e-11
1.63317e-11
3.25597e-11
1.77249e-11
2.97769e-11
1.9088e-11
2.67494e-11
2.0463e-11
2.34804e-11
2.17639e-11
1.99816e-11
2.2995e-11
1.62709e-11
2.40901e-11
1.23778e-11
2.50309e-11
8.33761e-12
2.57688e-11
4.19527e-12
2.62817e-11
2.6543e-11
5.59873e-11
2.25799e-14
5.59812e-11
6.80882e-14
5.59709e-11
1.14647e-13
5.59563e-11
1.62975e-13
5.5937e-11
2.13816e-13
5.59129e-11
2.6795e-13
5.58835e-11
3.26207e-13
5.58484e-11
3.89477e-13
5.58069e-11
4.58721e-13
5.57586e-11
5.34989e-13
5.57025e-11
6.19429e-13
5.56377e-11
7.13305e-13
5.55634e-11
8.18015e-13
5.54782e-11
9.35104e-13
5.53808e-11
1.06629e-12
5.52696e-11
1.21347e-12
5.51428e-11
1.37875e-12
5.49984e-11
1.56448e-12
5.48341e-11
1.77326e-12
5.46472e-11
2.00793e-12
5.44346e-11
2.2717e-12
5.41928e-11
2.56795e-12
5.3918e-11
2.90066e-12
5.36055e-11
3.27366e-12
5.32505e-11
3.69201e-12
5.28466e-11
4.15957e-12
5.23879e-11
4.68309e-12
5.1866e-11
5.26535e-12
5.12737e-11
5.91626e-12
5.05995e-11
6.63473e-12
4.9835e-11
7.43707e-12
4.89654e-11
8.3125e-12
4.79803e-11
9.29019e-12
4.68616e-11
1.03388e-11
4.55962e-11
1.15115e-11
4.41646e-11
1.27397e-11
4.2548e-11
1.41145e-11
4.07314e-11
1.55126e-11
3.86871e-11
1.70691e-11
3.64096e-11
1.86066e-11
3.38692e-11
2.02756e-11
3.1063e-11
2.18941e-11
2.7983e-11
2.35519e-11
2.46279e-11
2.51209e-11
2.10104e-11
2.66193e-11
1.71453e-11
2.79581e-11
1.30669e-11
2.91144e-11
8.8134e-12
3.00253e-11
4.43851e-12
3.06605e-11
3.09847e-11
5.6037e-11
2.42725e-14
5.60319e-11
7.31931e-14
5.60233e-11
1.23246e-13
5.60111e-11
1.75206e-13
5.5995e-11
2.29875e-13
5.59749e-11
2.88096e-13
5.59503e-11
3.50764e-13
5.5921e-11
4.18841e-13
5.58863e-11
4.93367e-13
5.58458e-11
5.75478e-13
5.57988e-11
6.66421e-13
5.57446e-11
7.67567e-13
5.56821e-11
8.80438e-13
5.56105e-11
1.00672e-12
5.55285e-11
1.14827e-12
5.54348e-11
1.30719e-12
5.53277e-11
1.48579e-12
5.52056e-11
1.68664e-12
5.50662e-11
1.91262e-12
5.49072e-11
2.16686e-12
5.4726e-11
2.45297e-12
5.45191e-11
2.77469e-12
5.42833e-11
3.13654e-12
5.40139e-11
3.54283e-12
5.37067e-11
3.99932e-12
5.33554e-11
4.51049e-12
5.29546e-11
5.08416e-12
5.24956e-11
5.72363e-12
5.19716e-11
6.44065e-12
5.13708e-11
7.23413e-12
5.06848e-11
8.12378e-12
4.98978e-11
9.09715e-12
4.89987e-11
1.01901e-11
4.79685e-11
1.13655e-11
4.67911e-11
1.26895e-11
4.54468e-11
1.40791e-11
4.39114e-11
1.56494e-11
4.21687e-11
1.72493e-11
4.01859e-11
1.90492e-11
3.79514e-11
2.0834e-11
3.54344e-11
2.27878e-11
3.26187e-11
2.47016e-11
2.94912e-11
2.66735e-11
2.60454e-11
2.85589e-11
2.22902e-11
3.03691e-11
1.82413e-11
3.20004e-11
1.39344e-11
3.34168e-11
9.41512e-12
3.45397e-11
4.74664e-12
3.53252e-11
3.57276e-11
5.60843e-11
2.56022e-14
5.60803e-11
7.72041e-14
5.60735e-11
1.30004e-13
5.60639e-11
1.84821e-13
5.60513e-11
2.42504e-13
5.60354e-11
3.03947e-13
5.60161e-11
3.70097e-13
5.5993e-11
4.41976e-13
5.59656e-11
5.20688e-13
5.59337e-11
6.07441e-13
5.58965e-11
7.03561e-13
5.58536e-11
8.10512e-13
5.58041e-11
9.29917e-13
5.57472e-11
1.06358e-12
5.5682e-11
1.2135e-12
5.56072e-11
1.38193e-12
5.55217e-11
1.57136e-12
5.54237e-11
1.78457e-12
5.53117e-11
2.02468e-12
5.51834e-11
2.29513e-12
5.50366e-11
2.59982e-12
5.48683e-11
2.94292e-12
5.46755e-11
3.32938e-12
5.44542e-11
3.76404e-12
5.42004e-11
4.25336e-12
5.39082e-11
4.80242e-12
5.35728e-11
5.42015e-12
5.31854e-11
6.11043e-12
5.27404e-11
6.887e-12
5.22246e-11
7.74871e-12
5.16318e-11
8.71945e-12
5.09424e-11
9.78407e-12
5.01496e-11
1.09884e-11
4.92266e-11
1.22841e-11
4.81633e-11
1.37624e-11
4.6929e-11
1.53066e-11
4.55018e-11
1.70916e-11
4.38604e-11
1.88821e-11
4.1954e-11
2.09752e-11
3.97898e-11
2.29914e-11
3.72912e-11
2.53067e-11
3.44596e-11
2.75329e-11
3.12791e-11
2.98709e-11
2.77267e-11
3.21155e-11
2.38165e-11
3.42921e-11
1.95512e-11
3.62717e-11
1.49761e-11
3.80012e-11
1.0139e-11
3.93827e-11
5.11831e-12
4.03527e-11
4.08517e-11
5.61284e-11
2.65481e-14
5.61256e-11
8.00575e-14
5.61208e-11
1.34813e-13
5.61139e-11
1.91667e-13
5.61049e-11
2.51502e-13
5.60936e-11
3.15249e-13
5.60798e-11
3.83897e-13
5.60633e-11
4.5851e-13
5.60437e-11
5.40242e-13
5.60208e-11
6.30355e-13
5.59941e-11
7.30239e-13
5.59632e-11
8.41428e-13
5.59275e-11
9.65628e-13
5.58863e-11
1.10474e-12
5.58389e-11
1.26087e-12
5.57845e-11
1.4364e-12
5.57219e-11
1.63397e-12
5.56499e-11
1.85654e-12
5.55671e-11
2.10746e-12
5.54718e-11
2.39039e-12
5.53621e-11
2.70955e-12
5.52354e-11
3.06946e-12
5.50894e-11
3.47551e-12
5.49202e-11
3.93302e-12
5.47246e-11
4.44911e-12
5.4497e-11
5.02952e-12
5.42333e-11
5.68419e-12
5.39248e-11
6.41783e-12
5.35666e-11
7.24585e-12
5.31455e-11
8.16784e-12
5.26552e-11
9.21087e-12
5.20765e-11
1.03594e-11
5.14003e-11
1.1666e-11
5.06014e-11
1.30777e-11
4.96634e-11
1.47014e-11
4.85594e-11
1.64033e-11
4.72564e-11
1.83936e-11
4.5736e-11
2.03935e-11
4.39402e-11
2.27657e-11
4.18636e-11
2.50574e-11
3.94458e-11
2.77143e-11
3.66455e-11
3.03188e-11
3.34363e-11
3.30681e-11
2.97891e-11
3.57483e-11
2.57055e-11
3.83646e-11
2.11918e-11
4.07734e-11
1.62894e-11
4.28946e-11
1.10581e-11
4.46053e-11
5.59143e-12
4.58126e-11
4.64366e-11
5.61858e-11
2.70948e-14
5.61842e-11
8.17075e-14
5.61814e-11
1.37596e-13
5.61774e-11
1.95632e-13
5.61722e-11
2.56722e-13
5.61657e-11
3.21819e-13
5.61576e-11
3.91938e-13
5.6148e-11
4.6817e-13
5.61365e-11
5.51703e-13
5.6123e-11
6.43836e-13
5.61072e-11
7.46001e-13
5.60889e-11
8.59783e-13
5.60676e-11
9.86945e-13
5.60428e-11
1.12946e-12
5.60142e-11
1.28951e-12
5.5981e-11
1.46959e-12
5.59425e-11
1.67244e-12
5.58979e-11
1.90118e-12
5.5846e-11
2.15932e-12
5.57857e-11
2.45073e-12
5.57154e-11
2.7799e-12
5.56331e-11
3.15165e-12
5.5537e-11
3.57175e-12
5.54239e-11
4.04601e-12
5.52913e-11
4.58208e-12
5.51339e-11
5.18645e-12
5.49491e-11
5.86989e-12
5.47278e-11
6.63819e-12
5.44676e-11
7.5081e-12
5.41529e-11
8.48054e-12
5.37828e-11
9.5853e-12
5.33308e-11
1.08072e-11
5.27995e-11
1.22061e-11
5.21461e-11
1.37229e-11
5.13759e-11
1.54879e-11
5.04317e-11
1.73336e-11
4.93035e-11
1.95487e-11
4.79518e-11
2.17259e-11
4.62883e-11
2.44666e-11
4.43808e-11
2.69474e-11
4.20063e-11
3.01266e-11
3.91988e-11
3.31272e-11
3.59634e-11
3.63328e-11
3.22039e-11
3.95177e-11
2.79396e-11
4.26507e-11
2.31375e-11
4.55878e-11
1.7857e-11
4.8191e-11
1.21579e-11
5.03152e-11
6.15969e-12
5.18221e-11
5.26058e-11
5.62386e-11
2.72329e-14
5.62382e-11
8.21251e-14
5.62375e-11
1.38304e-13
5.62365e-11
1.96648e-13
5.62351e-11
2.58072e-13
5.62334e-11
3.23538e-13
5.62313e-11
3.94071e-13
5.62287e-11
4.70777e-13
5.62255e-11
5.54856e-13
5.62217e-11
6.47627e-13
5.62172e-11
7.50541e-13
5.62117e-11
8.65213e-13
5.62052e-11
9.93438e-13
5.61975e-11
1.13723e-12
5.61882e-11
1.29883e-12
5.6177e-11
1.48077e-12
5.61635e-11
1.68591e-12
5.61472e-11
1.91745e-12
5.61275e-11
2.17902e-12
5.61035e-11
2.47467e-12
5.60744e-11
2.80907e-12
5.60386e-11
3.18732e-12
5.5995e-11
3.61548e-12
5.59409e-11
4.09981e-12
5.58748e-11
4.64841e-12
5.57921e-11
5.26854e-12
5.56909e-11
5.97156e-12
5.55631e-11
6.76464e-12
5.54069e-11
7.66535e-12
5.5208e-11
8.67686e-12
5.49647e-11
9.83029e-12
5.46537e-11
1.11135e-11
5.42723e-11
1.25899e-11
5.3786e-11
1.42019e-11
5.31846e-11
1.60916e-11
5.24277e-11
1.80801e-11
5.14773e-11
2.04987e-11
5.03129e-11
2.28778e-11
4.88269e-11
2.59442e-11
4.70663e-11
2.86946e-11
4.49125e-11
3.22608e-11
4.22491e-11
3.57641e-11
3.90396e-11
3.95194e-11
3.52113e-11
4.33204e-11
3.07465e-11
4.70944e-11
2.56252e-11
5.06874e-11
1.98821e-11
5.39175e-11
1.35939e-11
5.65887e-11
6.90469e-12
5.85002e-11
5.95006e-11
5.62859e-11
2.69589e-14
5.62867e-11
8.13003e-14
5.62881e-11
1.36919e-13
5.62901e-11
1.94688e-13
5.62926e-11
2.55517e-13
5.62958e-11
3.20362e-13
5.62996e-11
3.90243e-13
5.63041e-11
4.6626e-13
5.63094e-11
5.49613e-13
5.63154e-11
6.41617e-13
5.63222e-11
7.43724e-13
5.63299e-11
8.5755e-13
5.63384e-11
9.84897e-13
5.63479e-11
1.12779e-12
5.63582e-11
1.28849e-12
5.63694e-11
1.46955e-12
5.63815e-11
1.67388e-12
5.63942e-11
1.90471e-12
5.64075e-11
2.16577e-12
5.64209e-11
2.46121e-12
5.64342e-11
2.79582e-12
5.64465e-11
3.1749e-12
5.64575e-11
3.60472e-12
5.64651e-11
4.09195e-12
5.64691e-11
4.64494e-12
5.64653e-11
5.2718e-12
5.64539e-11
5.98412e-12
5.64265e-11
6.79081e-12
5.63852e-11
7.70931e-12
5.63125e-11
8.74657e-12
5.62166e-11
9.93215e-12
5.60616e-11
1.12621e-11
5.58692e-11
1.27947e-11
5.55697e-11
1.44882e-11
5.52097e-11
1.6476e-11
5.46676e-11
1.85974e-11
5.40087e-11
2.12019e-11
5.3096e-11
2.37498e-11
5.1834e-11
2.72755e-11
5.05292e-11
2.99541e-11
4.84144e-11
3.44424e-11
4.56722e-11
3.85177e-11
4.25441e-11
4.26927e-11
3.86584e-11
4.72297e-11
3.40299e-11
5.17569e-11
2.85481e-11
5.61948e-11
2.22778e-11
6.02134e-11
1.52995e-11
6.3586e-11
7.794e-12
6.60223e-11
6.73087e-11
5.63442e-11
2.62758e-14
5.63462e-11
7.92413e-14
5.63497e-11
1.33455e-13
5.63546e-11
1.89773e-13
5.6361e-11
2.49082e-13
5.63691e-11
3.12319e-13
5.63788e-11
3.80484e-13
5.63904e-11
4.54656e-13
5.6404e-11
5.36011e-13
5.64198e-11
6.25843e-13
5.6438e-11
7.25582e-13
5.64587e-11
8.3682e-13
5.64822e-11
9.61338e-13
5.65089e-11
1.10113e-12
5.65389e-11
1.25846e-12
5.65726e-11
1.43586e-12
5.66103e-11
1.63622e-12
5.66522e-11
1.86278e-12
5.66987e-11
2.11928e-12
5.67499e-11
2.40992e-12
5.68063e-11
2.73953e-12
5.68675e-11
3.11356e-12
5.6934e-11
3.53833e-12
5.70048e-11
4.02087e-12
5.70804e-11
4.56962e-12
5.71581e-11
5.19346e-12
5.72388e-11
5.904e-12
5.73162e-11
6.71191e-12
5.73927e-11
7.63413e-12
5.74546e-11
8.68163e-12
5.75074e-11
9.88184e-12
5.75241e-11
1.12397e-11
5.75153e-11
1.28076e-11
5.74325e-11
1.45613e-11
5.72892e-11
1.66248e-11
5.70117e-11
1.88602e-11
5.65877e-11
2.16304e-11
5.59615e-11
2.43573e-11
5.49093e-11
2.83198e-11
5.37472e-11
3.11089e-11
5.2237e-11
1.96442e-11
1.62752e-11
4.99756e-11
1.86138e-11
2.2111e-11
4.69624e-11
2.10832e-11
2.45817e-11
4.3079e-11
2.3836e-11
2.7231e-11
3.82579e-11
2.66679e-11
2.98694e-11
3.24117e-11
2.95429e-11
3.24544e-11
2.55109e-11
3.23018e-11
3.47769e-11
1.76364e-11
3.47674e-11
3.6664e-11
9.02067e-12
3.67102e-11
3.79061e-11
3.79509e-11
3.83599e-11
5.63936e-11
2.51926e-14
5.63969e-11
7.59759e-14
5.64024e-11
1.2796e-13
5.64102e-11
1.81966e-13
5.64204e-11
2.3885e-13
5.64332e-11
2.99514e-13
5.64488e-11
3.6492e-13
5.64673e-11
4.36109e-13
5.64891e-11
5.14218e-13
5.65145e-11
6.00496e-13
5.65437e-11
6.96327e-13
5.65773e-11
8.03256e-13
5.66156e-11
9.23012e-13
5.66592e-11
1.05754e-12
5.67087e-11
1.20903e-12
5.67645e-11
1.37998e-12
5.68275e-11
1.57321e-12
5.68984e-11
1.79192e-12
5.69779e-11
2.03978e-12
5.70669e-11
2.32097e-12
5.71662e-11
2.64027e-12
5.72765e-11
3.00317e-12
5.73991e-11
3.41597e-12
5.75338e-11
3.8859e-12
5.76827e-11
4.42131e-12
5.78437e-11
5.03179e-12
5.80205e-11
5.72854e-12
5.82067e-11
6.52424e-12
5.84097e-11
7.43409e-12
5.8613e-11
8.4748e-12
5.88343e-11
9.66732e-12
5.90328e-11
1.10332e-11
5.92529e-11
1.26021e-11
5.93965e-11
1.44006e-11
5.95799e-11
1.64717e-11
5.95586e-11
1.88455e-11
5.96654e-11
2.15855e-11
5.9223e-11
2.47239e-11
5.93301e-11
2.83433e-11
2.96044e-11
3.25144e-11
2.81514e-11
-1.66758e-11
1.7339e-11
2.9261e-11
-2.75606e-11
2.70328e-11
1.91006e-11
-2.66912e-11
2.60013e-11
2.17735e-11
-2.53612e-11
2.44873e-11
2.47347e-11
-2.35676e-11
2.24168e-11
2.78551e-11
-2.11608e-11
1.96926e-11
3.10482e-11
-1.8075e-11
1.62869e-11
3.41177e-11
-1.43311e-11
1.22311e-11
3.68847e-11
-9.97723e-12
7.60649e-12
3.90916e-11
-5.12728e-12
2.58322e-12
4.05037e-11
5.64421e-11
2.37248e-14
5.64465e-11
7.15504e-14
5.6454e-11
1.2051e-13
5.64646e-11
1.71379e-13
5.64784e-11
2.24967e-13
5.64958e-11
2.82126e-13
5.6517e-11
3.43767e-13
5.65422e-11
4.10876e-13
5.65719e-11
4.8453e-13
5.66065e-11
5.65915e-13
5.66465e-11
6.56346e-13
5.66925e-11
7.57294e-13
5.67451e-11
8.70406e-13
5.68051e-11
9.9754e-13
5.68733e-11
1.1408e-12
5.69507e-11
1.30257e-12
5.70384e-11
1.48556e-12
5.71374e-11
1.69287e-12
5.72492e-11
1.92804e-12
5.7375e-11
2.19515e-12
5.75165e-11
2.49884e-12
5.7675e-11
2.84452e-12
5.78528e-11
3.23833e-12
5.80508e-11
3.68756e-12
5.82721e-11
4.20034e-12
5.85165e-11
4.78669e-12
5.87886e-11
5.45725e-12
5.9085e-11
6.22626e-12
5.94134e-11
7.10728e-12
5.97634e-11
8.12154e-12
6.01491e-11
9.28484e-12
6.05444e-11
1.06315e-11
6.09777e-11
1.21748e-11
6.13888e-11
1.39777e-11
6.18414e-11
1.603e-11
6.2192e-11
1.84734e-11
6.26165e-11
2.11824e-11
6.27228e-11
2.45754e-11
6.31287e-11
2.79879e-11
3.2331e-11
3.30304e-11
3.01872e-11
-1.74915e-11
1.78908e-11
3.21417e-11
-2.99648e-11
2.958e-11
-1.98888e-11
2.01843e-11
-2.93488e-11
2.88044e-11
-2.27494e-11
2.32488e-11
-2.82786e-11
2.75015e-11
-2.59218e-11
2.66845e-11
-2.66488e-11
2.5536e-11
-2.93072e-11
3.04266e-11
-2.4301e-11
2.27414e-11
-3.27711e-11
3.43489e-11
-2.09806e-11
1.90307e-11
-3.62021e-11
3.81608e-11
-1.68464e-11
1.44618e-11
-3.93113e-11
4.16958e-11
-1.18582e-11
9.07737e-12
-4.17868e-11
4.45655e-11
-6.13992e-12
3.09851e-12
-4.33369e-11
4.63812e-11
5.64889e-11
2.18937e-14
5.64944e-11
6.6029e-14
5.65037e-11
1.11213e-13
5.65169e-11
1.58165e-13
5.65343e-11
2.07633e-13
5.6556e-11
2.60405e-13
5.65824e-11
3.17328e-13
5.6614e-11
3.79316e-13
5.66511e-11
4.47368e-13
5.66945e-11
5.22587e-13
5.67446e-11
6.06198e-13
5.68024e-11
6.99569e-13
5.68685e-11
8.0424e-13
5.69441e-11
9.21948e-13
5.70303e-11
1.05466e-12
5.71282e-11
1.20462e-12
5.72394e-11
1.37438e-12
5.73654e-11
1.56686e-12
5.75081e-11
1.78541e-12
5.76693e-11
2.03391e-12
5.78515e-11
2.31677e-12
5.80567e-11
2.63921e-12
5.82882e-11
3.00707e-12
5.8548e-11
3.42753e-12
5.88406e-11
3.90828e-12
5.91672e-11
4.45953e-12
5.95345e-11
5.09113e-12
5.99409e-11
5.81843e-12
6.0398e-11
6.6531e-12
6.0896e-11
7.6201e-12
6.1457e-11
8.73014e-12
6.20525e-11
1.00284e-11
6.27267e-11
1.15139e-11
6.34096e-11
1.32788e-11
6.419e-11
1.52761e-11
6.4915e-11
1.77164e-11
6.57495e-11
2.03973e-11
6.64078e-11
2.38574e-11
6.70993e-11
2.73807e-11
3.49837e-11
3.24958e-11
3.25516e-11
-1.7878e-11
1.79666e-11
3.50328e-11
-3.26876e-11
3.25041e-11
-2.0696e-11
2.08298e-11
-3.24366e-11
3.20946e-11
-2.39458e-11
2.42794e-11
-3.17316e-11
3.11411e-11
-2.76396e-11
2.82534e-11
-3.0426e-11
2.94488e-11
-3.17163e-11
3.27447e-11
-2.83899e-11
2.66645e-11
-3.58812e-11
3.76867e-11
-2.46514e-11
2.25828e-11
-4.02843e-11
4.23961e-11
-2.01599e-11
1.74601e-11
-4.43673e-11
4.70849e-11
-1.44239e-11
1.11097e-11
-4.76892e-11
5.10097e-11
-7.54947e-12
3.82031e-12
-4.97817e-11
5.3516e-11
5.65315e-11
1.97266e-14
5.65381e-11
5.94937e-14
5.65491e-11
1.00208e-13
5.65647e-11
1.42519e-13
5.65853e-11
1.87103e-13
5.6611e-11
2.34673e-13
5.66423e-11
2.85994e-13
5.66798e-11
3.41894e-13
5.67238e-11
4.03278e-13
5.67753e-11
4.71147e-13
5.68349e-11
5.46612e-13
5.69035e-11
6.30919e-13
5.69823e-11
7.25468e-13
5.70724e-11
8.31843e-13
5.71753e-11
9.51842e-13
5.72924e-11
1.08752e-12
5.74256e-11
1.24121e-12
5.75768e-11
1.41561e-12
5.77484e-11
1.6138e-12
5.7943e-11
1.83937e-12
5.81634e-11
2.09642e-12
5.84127e-11
2.38982e-12
5.86949e-11
2.725e-12
5.90134e-11
3.10879e-12
5.93737e-11
3.54832e-12
5.9779e-11
4.05359e-12
6.02374e-11
4.63356e-12
6.07505e-11
5.30389e-12
6.13307e-11
6.07455e-12
6.19753e-11
6.97246e-12
6.27043e-11
8.00454e-12
6.35044e-11
9.22224e-12
6.44092e-11
1.06156e-11
6.53829e-11
1.2294e-11
6.64823e-11
1.41887e-11
6.76267e-11
1.65519e-11
6.89085e-11
1.91378e-11
7.01699e-11
2.25602e-11
7.15138e-11
2.60797e-11
3.76377e-11
3.11958e-11
3.51133e-11
-1.77617e-11
1.75405e-11
3.79457e-11
-3.57023e-11
3.57712e-11
-2.10311e-11
2.09349e-11
-3.59434e-11
3.58807e-11
-2.46639e-11
2.47375e-11
-3.57533e-11
3.54782e-11
-2.89405e-11
2.92572e-11
-3.49148e-11
3.44014e-11
-3.39945e-11
3.45852e-11
-1.70557e-11
-2.04861e-11
1.63964e-11
2.07868e-11
-1.49342e-11
-2.38106e-11
1.42667e-11
2.42256e-11
-1.21677e-11
-2.66701e-11
1.12889e-11
2.73735e-11
-8.43089e-12
-2.8972e-11
7.32307e-12
2.99696e-11
-3.80926e-12
3.15188e-11
-3.03017e-11
2.54718e-12
5.65694e-11
1.72558e-14
5.65768e-11
5.20427e-14
5.65894e-11
8.76601e-14
5.66072e-11
1.24677e-13
5.66306e-11
1.63687e-13
5.666e-11
2.05315e-13
5.66958e-11
2.50233e-13
5.67385e-11
2.99169e-13
5.67889e-11
3.52918e-13
5.68477e-11
4.12361e-13
5.69158e-11
4.78476e-13
5.69944e-11
5.52362e-13
5.70846e-11
6.35255e-13
5.71879e-11
7.28556e-13
5.73059e-11
8.33856e-13
5.74404e-11
9.52976e-13
5.75936e-11
1.08799e-12
5.77679e-11
1.24131e-12
5.79661e-11
1.41568e-12
5.81911e-11
1.61432e-12
5.84467e-11
1.84089e-12
5.87367e-11
2.09981e-12
5.90659e-11
2.39596e-12
5.94389e-11
2.73562e-12
5.98625e-11
3.12517e-12
6.03416e-11
3.574e-12
6.08862e-11
4.09008e-12
6.15003e-11
4.68849e-12
6.21995e-11
5.37783e-12
6.29844e-11
6.18471e-12
6.38798e-11
7.11425e-12
6.48779e-11
8.21809e-12
6.60186e-11
9.48504e-12
6.72771e-11
1.10234e-11
6.87137e-11
1.27709e-11
7.02781e-11
1.49654e-11
7.20408e-11
1.74071e-11
7.39385e-11
2.06255e-11
7.5974e-11
2.40916e-11
4.03299e-11
2.89457e-11
3.7841e-11
-1.70835e-11
1.65294e-11
4.09426e-11
-3.89635e-11
3.93434e-11
-2.0788e-11
2.03897e-11
-3.98405e-11
4.01275e-11
-2.47294e-11
2.44568e-11
-4.03803e-11
4.04502e-11
-2.94703e-11
2.94369e-11
-4.03341e-11
3.99743e-11
-3.50477e-11
3.54588e-11
-2.06332e-11
-2.1773e-11
2.0042e-11
2.20324e-11
-1.85807e-11
-2.58356e-11
1.79103e-11
2.63359e-11
-1.55812e-11
-2.99407e-11
1.46124e-11
3.08222e-11
-1.11151e-11
-3.35459e-11
9.74824e-12
3.4867e-11
-5.12498e-12
3.74814e-11
-3.58237e-11
3.45023e-12
5.66036e-11
1.4519e-14
5.66118e-11
4.37889e-14
5.66257e-11
7.37589e-14
5.66455e-11
1.04909e-13
5.66715e-11
1.37738e-13
5.6704e-11
1.72776e-13
5.67436e-11
2.10589e-13
5.6791e-11
2.5179e-13
5.68469e-11
2.97053e-13
5.69121e-11
3.47122e-13
5.69878e-11
4.02825e-13
5.70751e-11
4.65093e-13
5.71754e-11
5.34974e-13
5.72903e-11
6.13659e-13
5.74216e-11
7.02499e-13
5.75716e-11
8.03045e-13
5.77425e-11
9.1707e-13
5.79372e-11
1.04663e-12
5.81589e-11
1.19407e-12
5.8411e-11
1.36217e-12
5.86979e-11
1.55406e-12
5.90241e-11
1.77358e-12
5.93953e-11
2.02493e-12
5.98171e-11
2.31361e-12
6.02975e-11
2.64512e-12
6.08432e-11
3.02782e-12
6.14654e-11
3.46854e-12
6.21718e-11
3.981e-12
6.29788e-11
4.57235e-12
6.38936e-11
5.26737e-12
6.49413e-11
6.06956e-12
6.61269e-11
7.0278e-12
6.74873e-11
8.1302e-12
6.90228e-11
9.47936e-12
7.07853e-11
1.10182e-11
7.27685e-11
1.29678e-11
7.50327e-11
1.51594e-11
7.75738e-11
1.80615e-11
8.04159e-11
2.12757e-11
4.29752e-11
2.57221e-11
4.06293e-11
-1.57794e-11
1.48845e-11
4.39116e-11
-4.23702e-11
4.31254e-11
-1.9855e-11
1.90827e-11
-4.40335e-11
4.47791e-11
-2.39994e-11
2.3264e-11
-4.55476e-11
4.61591e-11
-2.91649e-11
2.8579e-11
-4.66684e-11
4.69238e-11
-3.55696e-11
3.53451e-11
-2.47661e-11
-2.26477e-11
2.43459e-11
2.27556e-11
-2.33567e-11
-2.78479e-11
2.27867e-11
2.82859e-11
-2.05738e-11
-3.37097e-11
1.95399e-11
3.46977e-11
-1.53808e-11
-3.94438e-11
1.36306e-11
4.11835e-11
-7.35476e-12
4.58035e-11
-4.34273e-11
4.97741e-12
5.66319e-11
1.15578e-14
5.66408e-11
3.48583e-14
5.66558e-11
5.87169e-14
5.66772e-11
8.35162e-14
5.67053e-11
1.09655e-13
5.67405e-11
1.37554e-13
5.67835e-11
1.67667e-13
5.68348e-11
2.00483e-13
5.68953e-11
2.36539e-13
5.6966e-11
2.76432e-13
5.7048e-11
3.20823e-13
5.71426e-11
3.70457e-13
5.72514e-11
4.26174e-13
5.73762e-11
4.8893e-13
5.75189e-11
5.59808e-13
5.76819e-11
6.40058e-13
5.78679e-11
7.31104e-13
5.80799e-11
8.34603e-13
5.83216e-11
9.52454e-13
5.85968e-11
1.0869e-12
5.89105e-11
1.24049e-12
5.92677e-11
1.41634e-12
5.96749e-11
1.61786e-12
6.01388e-11
1.84958e-12
6.06683e-11
2.11598e-12
6.12717e-11
2.42401e-12
6.19619e-11
2.77921e-12
6.27489e-11
3.19314e-12
6.36514e-11
3.67165e-12
6.4681e-11
4.23568e-12
6.58659e-11
4.88837e-12
6.72188e-11
5.67076e-12
6.87811e-11
6.57482e-12
7.05676e-11
7.68494e-12
7.26359e-11
8.96203e-12
7.50088e-11
1.05814e-11
7.7753e-11
1.24339e-11
8.09214e-11
1.48732e-11
8.45568e-11
1.76647e-11
4.54395e-11
2.14669e-11
4.33459e-11
-1.38067e-11
1.25642e-11
4.67139e-11
-4.57637e-11
4.69508e-11
-1.81176e-11
1.69128e-11
-4.83393e-11
4.96515e-11
-2.22675e-11
2.09602e-11
-5.10669e-11
5.24231e-11
-2.76432e-11
2.6303e-11
-5.37832e-11
5.50126e-11
-3.46638e-11
3.34523e-11
-2.97099e-11
-2.26629e-11
2.96156e-11
2.24631e-11
-2.96697e-11
-2.92244e-11
2.94244e-11
2.93494e-11
-2.81294e-11
-3.75267e-11
2.73788e-11
3.82343e-11
-2.25015e-11
-4.70204e-11
2.03348e-11
4.92117e-11
-1.1575e-11
5.82671e-11
-5.46053e-11
7.92479e-12
5.66538e-11
8.41785e-15
5.66633e-11
2.53884e-14
5.66792e-11
4.27659e-14
5.67019e-11
6.08293e-14
5.67317e-11
7.98694e-14
5.67691e-11
1.00194e-13
5.68146e-11
1.22132e-13
5.68691e-11
1.46043e-13
5.69333e-11
1.72318e-13
5.70083e-11
2.01393e-13
5.70954e-11
2.33751e-13
5.71959e-11
2.69938e-13
5.73116e-11
3.10568e-13
5.74442e-11
3.56341e-13
5.75959e-11
4.08053e-13
5.77694e-11
4.66618e-13
5.79674e-11
5.33085e-13
5.81934e-11
6.08672e-13
5.84511e-11
6.94776e-13
5.87449e-11
7.93054e-13
5.90801e-11
9.05383e-13
5.94623e-11
1.03408e-12
5.98987e-11
1.18167e-12
6.03966e-11
1.35152e-12
6.09659e-11
1.54695e-12
6.16164e-11
1.77321e-12
6.23618e-11
2.03438e-12
6.32148e-11
2.33927e-12
6.41956e-11
2.69217e-12
6.53203e-11
3.10917e-12
6.66187e-11
3.59249e-12
6.81122e-11
4.17384e-12
6.98442e-11
4.84717e-12
7.18457e-11
5.67751e-12
7.41782e-11
6.63684e-12
7.68919e-11
7.85851e-12
8.00682e-11
9.26852e-12
8.37996e-11
1.11292e-11
8.81827e-11
1.32962e-11
4.75551e-11
1.62419e-11
4.58346e-11
-1.1158e-11
9.59396e-12
4.91434e-11
-4.89306e-11
5.0573e-11
-1.54873e-11
1.38281e-11
-5.24748e-11
5.44203e-11
-1.93439e-11
1.73996e-11
-5.65769e-11
5.88328e-11
-2.4525e-11
2.22786e-11
-6.12596e-11
6.3785e-11
-3.16219e-11
2.91073e-11
-3.52789e-11
-2.11443e-11
3.57144e-11
2.04476e-11
-3.75891e-11
-2.88522e-11
3.80376e-11
2.82959e-11
-3.89914e-11
-4.02746e-11