/*--------------------------------*- C++ -*----------------------------------*\
| =========                 |                                                 |
| \\      /  F ield         | foam-extend: Open Source CFD                    |
|  \\    /   O peration     | Version:     4.0                                |
|   \\  /    A nd           | Web:         http://www.foam-extend.org         |
|    \\/     M anipulation  |                                                 |
\*---------------------------------------------------------------------------*/
FoamFile
{
    version     2.0;
    format      ascii;
    class       volVectorField;
    location    "0.001";
    object      U;
}
// * * * * * * * * * * * * * * * * * * * * * * * * * * * * * * * * * * * * * //

dimensions      [0 1 -1 0 0 0 0];

internalField   nonuniform List<vector> 
28770
(
(0.00190044 5.54547e-08 0)
(0.00190022 1.67211e-07 0)
(0.00189976 2.81518e-07 0)
(0.00189907 4.00119e-07 0)
(0.00189813 5.24813e-07 0)
(0.00189693 6.5749e-07 0)
(0.00189546 8.00145e-07 0)
(0.00189368 9.54915e-07 0)
(0.00189157 1.1241e-06 0)
(0.0018891 1.3102e-06 0)
(0.00188624 1.51592e-06 0)
(0.00188293 1.74426e-06 0)
(0.00187914 1.99846e-06 0)
(0.0018748 2.28211e-06 0)
(0.00186985 2.59916e-06 0)
(0.00186421 2.95393e-06 0)
(0.00185782 3.35118e-06 0)
(0.00185057 3.79609e-06 0)
(0.00184236 4.29437e-06 0)
(0.00183309 4.85216e-06 0)
(0.00182261 5.47622e-06 0)
(0.00181079 6.17359e-06 0)
(0.00179747 6.95224e-06 0)
(0.00178247 7.81984e-06 0)
(0.00176562 8.78567e-06 0)
(0.00174669 9.85729e-06 0)
(0.00172546 1.10457e-05 0)
(0.0017017 1.23565e-05 0)
(0.00167511 1.38032e-05 0)
(0.00164546 1.53862e-05 0)
(0.0016124 1.71234e-05 0)
(0.00157569 1.90039e-05 0)
(0.00153493 2.10534e-05 0)
(0.00148989 2.32408e-05 0)
(0.00144016 2.56039e-05 0)
(0.00138552 2.8081e-05 0)
(0.00132562 3.07252e-05 0)
(0.00126025 3.34369e-05 0)
(0.00118918 3.62805e-05 0)
(0.00111227 3.9123e-05 0)
(0.00102947 4.20245e-05 0)
(0.000940763 4.48385e-05 0)
(0.000846338 4.75992e-05 0)
(0.000746364 5.01718e-05 0)
(0.000641301 5.25559e-05 0)
(0.000531565 5.46428e-05 0)
(0.000417866 5.64082e-05 0)
(0.000300882 5.77754e-05 0)
(0.000181524 5.87175e-05 0)
(6.06657e-05 5.91942e-05 0)
(0.00190066 1.65541e-07 0)
(0.00190044 4.99151e-07 0)
(0.00189999 8.40381e-07 0)
(0.00189931 1.19443e-06 0)
(0.00189838 1.56668e-06 0)
(0.0018972 1.96277e-06 0)
(0.00189575 2.38866e-06 0)
(0.00189399 2.85073e-06 0)
(0.00189192 3.35587e-06 0)
(0.00188949 3.91151e-06 0)
(0.00188666 4.52581e-06 0)
(0.0018834 5.20763e-06 0)
(0.00187966 5.96676e-06 0)
(0.00187538 6.81389e-06 0)
(0.0018705 7.76084e-06 0)
(0.00186495 8.82053e-06 0)
(0.00185864 1.00072e-05 0)
(0.00185149 1.13364e-05 0)
(0.0018434 1.28253e-05 0)
(0.00183424 1.44921e-05 0)
(0.0018239 1.63572e-05 0)
(0.00181223 1.84418e-05 0)
(0.00179908 2.07696e-05 0)
(0.00178427 2.33637e-05 0)
(0.00176761 2.62522e-05 0)
(0.0017489 2.94575e-05 0)
(0.00172791 3.30127e-05 0)
(0.0017044 3.69348e-05 0)
(0.00167808 4.12644e-05 0)
(0.00164871 4.60032e-05 0)
(0.00161595 5.12037e-05 0)
(0.00157954 5.68362e-05 0)
(0.00153908 6.29727e-05 0)
(0.00149434 6.953e-05 0)
(0.0014449 7.66063e-05 0)
(0.00139054 8.40428e-05 0)
(0.00133086 9.1962e-05 0)
(0.00126569 0.00010012 0)
(0.00119475 0.000108644 0)
(0.00111789 0.000117219 0)
(0.00103507 0.000125935 0)
(0.000946221 0.000134447 0)
(0.00085156 0.00014277 0)
(0.000751218 0.000150572 0)
(0.000645678 0.000157786 0)
(0.000535337 0.000164126 0)
(0.000420933 0.000169483 0)
(0.000303143 0.000173641 0)
(0.000182913 0.000176505 0)
(6.11324e-05 0.000177956 0)
(0.00190109 2.73187e-07 0)
(0.00190088 8.23735e-07 0)
(0.00190044 1.38687e-06 0)
(0.00189978 1.97118e-06 0)
(0.00189889 2.58554e-06 0)
(0.00189774 3.23928e-06 0)
(0.00189633 3.94225e-06 0)
(0.00189462 4.705e-06 0)
(0.00189261 5.53889e-06 0)
(0.00189025 6.45626e-06 0)
(0.00188751 7.47054e-06 0)
(0.00188434 8.59646e-06 0)
(0.00188071 9.85018e-06 0)
(0.00187655 1.12495e-05 0)
(0.00187181 1.28138e-05 0)
(0.00186641 1.45648e-05 0)
(0.00186028 1.6526e-05 0)
(0.00185333 1.87232e-05 0)
(0.00184545 2.11848e-05 0)
(0.00183654 2.39415e-05 0)
(0.00182647 2.70272e-05 0)
(0.00181511 3.0477e-05 0)
(0.00180229 3.4331e-05 0)
(0.00178784 3.86278e-05 0)
(0.00177158 4.34144e-05 0)
(0.00175331 4.87288e-05 0)
(0.00173278 5.46275e-05 0)
(0.00170978 6.11387e-05 0)
(0.00168399 6.83333e-05 0)
(0.00165519 7.62119e-05 0)
(0.00162301 8.48708e-05 0)
(0.00158721 9.42514e-05 0)
(0.00154736 0.000104494 0)
(0.00150324 0.000115436 0)
(0.00145437 0.000127284 0)
(0.00140056 0.000139715 0)
(0.00134136 0.000153022 0)
(0.00127658 0.000166686 0)
(0.00120592 0.000181058 0)
(0.0011292 0.00019545 0)
(0.00104634 0.000210184 0)
(0.000957248 0.000224509 0)
(0.000862126 0.000238597 0)
(0.000761067 0.000251762 0)
(0.000654572 0.000263986 0)
(0.000543018 0.000274713 0)
(0.000427183 0.000283801 0)
(0.000307757 0.000290851 0)
(0.000185748 0.000295713 0)
(6.20862e-05 0.000298176 0)
(0.00190173 3.76807e-07 0)
(0.00190153 1.13619e-06 0)
(0.00190111 1.91294e-06 0)
(0.00190048 2.71894e-06 0)
(0.00189963 3.56645e-06 0)
(0.00189853 4.46834e-06 0)
(0.00189718 5.43823e-06 0)
(0.00189556 6.4907e-06 0)
(0.00189363 7.64147e-06 0)
(0.00189138 8.90761e-06 0)
(0.00188876 1.03077e-05 0)
(0.00188573 1.18622e-05 0)
(0.00188226 1.35934e-05 0)
(0.00187829 1.5526e-05 0)
(0.00187375 1.76872e-05 0)
(0.00186859 2.01067e-05 0)
(0.00186272 2.28175e-05 0)
(0.00185606 2.58556e-05 0)
(0.00184851 2.92605e-05 0)
(0.00183996 3.3075e-05 0)
(0.0018303 3.73465e-05 0)
(0.00181938 4.21246e-05 0)
(0.00180706 4.74653e-05 0)
(0.00179316 5.34231e-05 0)
(0.0017775 6.00648e-05 0)
(0.00175988 6.74438e-05 0)
(0.00174006 7.56414e-05 0)
(0.00171782 8.4697e-05 0)
(0.00169284 9.47142e-05 0)
(0.0016649 0.000105693 0)
(0.00163361 0.000117776 0)
(0.00159875 0.00013088 0)
(0.00155982 0.000145209 0)
(0.00151666 0.000160537 0)
(0.00146867 0.000177159 0)
(0.00141574 0.000194639 0)
(0.00135727 0.000213365 0)
(0.00129314 0.000232664 0)
(0.00122291 0.000252962 0)
(0.00114641 0.000273395 0)
(0.00106352 0.000294301 0)
(0.000974043 0.000314749 0)
(0.000878245 0.000334853 0)
(0.000776079 0.000353738 0)
(0.000668152 0.000371281 0)
(0.000554739 0.000386731 0)
(0.000436736 0.000399831 0)
(0.000314807 0.000410018 0)
(0.000190085 0.000417046 0)
(6.35435e-05 0.00042061 0)
(0.00190257 4.74856e-07 0)
(0.00190238 1.43185e-06 0)
(0.00190199 2.41077e-06 0)
(0.0019014 3.42659e-06 0)
(0.0019006 4.49481e-06 0)
(0.00189957 5.63168e-06 0)
(0.00189831 6.85442e-06 0)
(0.00189678 8.18144e-06 0)
(0.00189498 9.63262e-06 0)
(0.00189286 1.12296e-05 0)
(0.0018904 1.29958e-05 0)
(0.00188756 1.49572e-05 0)
(0.0018843 1.71422e-05 0)
(0.00188056 1.9582e-05 0)
(0.0018763 2.23112e-05 0)
(0.00187144 2.53677e-05 0)
(0.00186591 2.87935e-05 0)
(0.00185964 3.26344e-05 0)
(0.00185252 3.69412e-05 0)
(0.00184446 4.17686e-05 0)
(0.00183534 4.71778e-05 0)
(0.00182502 5.32323e-05 0)
(0.00181335 6.0005e-05 0)
(0.00180018 6.75662e-05 0)
(0.00178531 7.60038e-05 0)
(0.00176856 8.53869e-05 0)
(0.00174968 9.58246e-05 0)
(0.00172845 0.000107367 0)
(0.00170455 0.000120158 0)
(0.00167777 0.000134191 0)
(0.00164767 0.000149677 0)
(0.00161407 0.000166479 0)
(0.0015764 0.000184931 0)
(0.00153452 0.000204655 0)
(0.00148776 0.000226184 0)
(0.00143601 0.00024876 0)
(0.00137859 0.000273185 0)
(0.00131536 0.000298207 0)
(0.0012458 0.000324873 0)
(0.00116968 0.000351495 0)
(0.00108683 0.000379115 0)
(0.000996956 0.000405927 0)
(0.000900303 0.000432575 0)
(0.000796736 0.000457504 0)
(0.000686878 0.00048083 0)
(0.000570973 0.000501349 0)
(0.000449984 0.000518824 0)
(0.000324613 0.000532413 0)
(0.000196119 0.000541812 0)
(6.55758e-05 0.000546578 0)
(0.0019036 5.65882e-07 0)
(0.00190342 1.70633e-06 0)
(0.00190307 2.87296e-06 0)
(0.00190252 4.08365e-06 0)
(0.00190179 5.35692e-06 0)
(0.00190084 6.71215e-06 0)
(0.00189968 8.16995e-06 0)
(0.00189828 9.75234e-06 0)
(0.00189662 1.14831e-05 0)
(0.00189467 1.33881e-05 0)
(0.00189241 1.54956e-05 0)
(0.00188979 1.78366e-05 0)
(0.00188679 2.04452e-05 0)
(0.00188335 2.3359e-05 0)
(0.00187942 2.66196e-05 0)
(0.00187493 3.02728e-05 0)
(0.00186983 3.43692e-05 0)
(0.00186403 3.89644e-05 0)
(0.00185745 4.412e-05 0)
(0.00184999 4.99026e-05 0)
(0.00184153 5.63867e-05 0)
(0.00183194 6.365e-05 0)
(0.00182109 7.17825e-05 0)
(0.00180883 8.08704e-05 0)
(0.00179495 9.10232e-05 0)
(0.00177929 0.000102327 0)
(0.00176158 0.000114919 0)
(0.00174164 0.000128862 0)
(0.0017191 0.000144342 0)
(0.00169381 0.000161351 0)
(0.00166523 0.000180161 0)
(0.00163327 0.00020061 0)
(0.0015972 0.000223118 0)
(0.00155705 0.000247243 0)
(0.00151186 0.000273631 0)
(0.00146176 0.000301417 0)
(0.00140569 0.000331506 0)
(0.00134375 0.000362542 0)
(0.00127509 0.000395581 0)
(0.00119953 0.000428895 0)
(0.00111682 0.000463375 0)
(0.00102639 0.00049723 0)
(0.000928747 0.000530836 0)
(0.000823327 0.000562572 0)
(0.000711082 0.000592273 0)
(0.000591941 0.000618575 0)
(0.000467152 0.000640998 0)
(0.000337316 0.00065851 0)
(0.000203955 0.000670631 0)
(6.82097e-05 0.00067679 0)
(0.0019048 6.48525e-07 0)
(0.00190464 1.95555e-06 0)
(0.00190432 3.29264e-06 0)
(0.00190383 4.68034e-06 0)
(0.00190317 6.13991e-06 0)
(0.00190233 7.69366e-06 0)
(0.00190128 9.36527e-06 0)
(0.00190003 1.11801e-05 0)
(0.00189854 1.31655e-05 0)
(0.00189679 1.53514e-05 0)
(0.00189475 1.77702e-05 0)
(0.00189241 2.04579e-05 0)
(0.0018897 2.34539e-05 0)
(0.00188661 2.68017e-05 0)
(0.00188307 3.05496e-05 0)
(0.00187903 3.47508e-05 0)
(0.00187442 3.94643e-05 0)
(0.00186919 4.4755e-05 0)
(0.00186323 5.0695e-05 0)
(0.00185647 5.73624e-05 0)
(0.0018488 6.48452e-05 0)
(0.00184009 7.32352e-05 0)
(0.00183021 8.26396e-05 0)
(0.00181902 9.31609e-05 0)
(0.00180632 0.000104932 0)
(0.00179196 0.000118055 0)
(0.00177566 0.000132702 0)
(0.00175726 0.000148945 0)
(0.00173636 0.000167027 0)
(0.00171285 0.000186922 0)
(0.00168611 0.000209014 0)
(0.00165614 0.000233042 0)
(0.00162206 0.000259669 0)
(0.00158398 0.000288155 0)
(0.00154081 0.000319667 0)
(0.00149268 0.000352634 0)
(0.00143844 0.000388987 0)
(0.0013781 0.000425994 0)
(0.00131077 0.00046641 0)
(0.00123606 0.000506406 0)
(0.00115374 0.000548975 0)
(0.00106301 0.000590083 0)
(0.000964284 0.0006317 0)
(0.000856893 0.000670695 0)
(0.000741716 0.000707633 0)
(0.000618684 0.000740288 0)
(0.000489088 0.000768324 0)
(0.000353629 0.00079023 0)
(0.000214019 0.00080545 0)
(7.1607e-05 0.000813186 0)
(0.00190615 7.21532e-07 0)
(0.00190601 2.17572e-06 0)
(0.00190573 3.66344e-06 0)
(0.00190531 5.2076e-06 0)
(0.00190474 6.83193e-06 0)
(0.001904 8.56134e-06 0)
(0.00190309 1.04223e-05 0)
(0.001902 1.24431e-05 0)
(0.0019007 1.46544e-05 0)
(0.00189918 1.70896e-05 0)
(0.00189741 1.97852e-05 0)
(0.00189536 2.27815e-05 0)
(0.001893 2.61229e-05 0)
(0.0018903 2.98582e-05 0)
(0.0018872 3.40421e-05 0)
(0.00188366 3.87345e-05 0)
(0.00187963 4.40025e-05 0)
(0.00187503 4.99196e-05 0)
(0.0018698 5.6568e-05 0)
(0.00186384 6.4037e-05 0)
(0.00185707 7.24276e-05 0)
(0.00184937 8.18453e-05 0)
(0.00184061 9.24147e-05 0)
(0.00183066 0.000104255 0)
(0.00181933 0.000117522 0)
(0.00180648 0.000132335 0)
(0.00179183 0.000148901 0)
(0.00177525 0.000167307 0)
(0.00175629 0.000187845 0)
(0.00173492 0.000210495 0)
(0.00171039 0.000235714 0)
(0.00168287 0.00026323 0)
(0.00165117 0.000293799 0)
(0.0016158 0.00032666 0)
(0.00157499 0.000363055 0)
(0.00152964 0.000401446 0)
(0.00147752 0.000443691 0)
(0.00141956 0.000487302 0)
(0.00135382 0.000534589 0)
(0.00128037 0.000582371 0)
(0.00119875 0.000632683 0)
(0.00110739 0.000682443 0)
(0.00100768 0.000732496 0)
(0.000897678 0.000780225 0)
(0.000779227 0.000825359 0)
(0.000651368 0.000865715 0)
(0.000516053 0.000900393 0)
(0.000373669 0.000927682 0)
(0.000226433 0.000946658 0)
(7.57843e-05 0.000956339 0)
(0.00190764 7.83798e-07 0)
(0.00190752 2.36351e-06 0)
(0.00190729 3.97974e-06 0)
(0.00190694 5.65745e-06 0)
(0.00190646 7.4225e-06 0)
(0.00190584 9.30204e-06 0)
(0.00190508 1.13249e-05 0)
(0.00190417 1.35221e-05 0)
(0.00190308 1.59271e-05 0)
(0.00190181 1.85764e-05 0)
(0.00190033 2.15101e-05 0)
(0.00189861 2.47722e-05 0)
(0.00189663 2.84116e-05 0)
(0.00189436 3.24822e-05 0)
(0.00189176 3.70439e-05 0)
(0.00188878 4.21634e-05 0)
(0.00188538 4.79146e-05 0)
(0.00188149 5.43795e-05 0)
(0.00187706 6.16497e-05 0)
(0.001872 6.98252e-05 0)
(0.00186623 7.90193e-05 0)
(0.00185966 8.93515e-05 0)
(0.00185215 0.000100963 0)
(0.0018436 0.00011399 0)
(0.00183382 0.000128613 0)
(0.00182269 0.00014497 0)
(0.0018099 0.000163306 0)
(0.00179539 0.000183717 0)
(0.00177865 0.000206573 0)
(0.00175972 0.000231821 0)
(0.00173775 0.000260092 0)
(0.00171301 0.000290938 0)
(0.00168417 0.000325549 0)
(0.0016518 0.000362598 0)
(0.00161403 0.000404382 0)
(0.00157164 0.000447872 0)
(0.00152251 0.000497281 0)
(0.0014671 0.000546875 0)
(0.00140386 0.000603354 0)
(0.00133211 0.000658075 0)
(0.00125173 0.00071903 0)
(0.00116074 0.000777166 0)
(0.00106003 0.000837634 0)
(0.00094782 0.00089451 0)
(0.000825424 0.000949271 0)
(0.000692154 0.000998163 0)
(0.000549762 0.00104058 0)
(0.000398929 0.00107401 0)
(0.000242078 0.00109738 0)
(8.10862e-05 0.00110932 0)
(0.00190923 8.34368e-07 0)
(0.00190914 2.51603e-06 0)
(0.00190896 4.23669e-06 0)
(0.00190868 6.02298e-06 0)
(0.00190831 7.90252e-06 0)
(0.00190782 9.90436e-06 0)
(0.00190723 1.20593e-05 0)
(0.00190651 1.44006e-05 0)
(0.00190565 1.6964e-05 0)
(0.00190465 1.97888e-05 0)
(0.00190347 2.2918e-05 0)
(0.00190212 2.63989e-05 0)
(0.00190055 3.02842e-05 0)
(0.00189875 3.46322e-05 0)
(0.00189668 3.95077e-05 0)
(0.00189431 4.49829e-05 0)
(0.00189159 5.11383e-05 0)
(0.00188848 5.80632e-05 0)
(0.00188492 6.5858e-05 0)
(0.00188085 7.46324e-05 0)
(0.00187619 8.45117e-05 0)
(0.00187085 9.56282e-05 0)
(0.00186473 0.000108139 0)
(0.00185773 0.000122198 0)
(0.00184966 0.000138009 0)
(0.00184045 0.000155729 0)
(0.00182977 0.000175638 0)
(0.00181762 0.000197858 0)
(0.00180339 0.000222803 0)
(0.00178732 0.000250454 0)
(0.00176827 0.000281494 0)
(0.00174696 0.000315538 0)
(0.00172134 0.000353791 0)
(0.00169299 0.000395099 0)
(0.00165849 0.000441582 0)
(0.0016206 0.000490737 0)
(0.00157446 0.000546012 0)
(0.00152343 0.000603076 0)
(0.00146271 0.000666593 0)
(0.00139364 0.000730861 0)
(0.00131536 0.000800159 0)
(0.00122352 0.00086961 0)
(0.00112258 0.000940602 0)
(0.00100699 0.00100942 0)
(0.000880721 0.00107534 0)
(0.000740773 0.0011352 0)
(0.000590325 0.00118721 0)
(0.000429291 0.00122863 0)
(0.000260999 0.00125763 0)
(8.74699e-05 0.00127252 0)
(0.00191092 8.72446e-07 0)
(0.00191085 2.6309e-06 0)
(0.00191072 4.43024e-06 0)
(0.00191052 6.29841e-06 0)
(0.00191026 8.26442e-06 0)
(0.00190991 1.03587e-05 0)
(0.00190949 1.26138e-05 0)
(0.00190897 1.50644e-05 0)
(0.00190836 1.77485e-05 0)
(0.00190764 2.07072e-05 0)
(0.0019068 2.3986e-05 0)
(0.00190582 2.76351e-05 0)
(0.0019047 3.17101e-05 0)
(0.00190339 3.62729e-05 0)
(0.00190189 4.13925e-05 0)
(0.00190017 4.71458e-05 0)
(0.00189818 5.36191e-05 0)
(0.0018959 6.0908e-05 0)
(0.00189328 6.91207e-05 0)
(0.00189027 7.83758e-05 0)
(0.00188679 8.88093e-05 0)
(0.0018828 0.000100566 0)
(0.00187817 0.000113819 0)
(0.00187285 0.000128737 0)
(0.00186665 0.000145548 0)
(0.00185953 0.000164431 0)
(0.00185115 0.000185704 0)
(0.00184158 0.000209503 0)
(0.00183015 0.00023633 0)
(0.00181719 0.000266126 0)
(0.00180148 0.000299802 0)
(0.0017838 0.000336732 0)
(0.00176207 0.000378765 0)
(0.00173776 0.00042384 0)
(0.00170768 0.000475908 0)
(0.00167389 0.000529699 0)
(0.00163251 0.000593428 0)
(0.00158517 0.000655727 0)
(0.00152898 0.000731748 0)
(0.00146289 0.000801896 0)
(0.00138759 0.00088695 0)
(0.00129826 0.000965914 0)
(0.00119692 0.00105078 0)
(0.00107975 0.00113161 0)
(0.000948587 0.0012108 0)
(0.000801695 0.0012829 0)
(0.00064125 0.00134619 0)
(0.000467889 0.00139687 0)
(0.000285053 0.00143254 0)
(9.56657e-05 0.00145091 0)
(0.00191266 8.97427e-07 0)
(0.00191263 2.70627e-06 0)
(0.00191255 4.5573e-06 0)
(0.00191244 6.47937e-06 0)
(0.00191228 8.5024e-06 0)
(0.00191208 1.06579e-05 0)
(0.00191183 1.29794e-05 0)
(0.00191153 1.55029e-05 0)
(0.00191118 1.82677e-05 0)
(0.00191075 2.13165e-05 0)
(0.00191026 2.46966e-05 0)
(0.00190968 2.84601e-05 0)
(0.00190901 3.26651e-05 0)
(0.00190823 3.73761e-05 0)
(0.00190732 4.26655e-05 0)
(0.00190628 4.8614e-05 0)
(0.00190506 5.53124e-05 0)
(0.00190366 6.28617e-05 0)
(0.00190202 7.13766e-05 0)
(0.00190013 8.09834e-05 0)
(0.00189791 9.18275e-05 0)
(0.00189534 0.000104065 0)
(0.00189231 0.000117882 0)
(0.0018888 0.000133465 0)
(0.00188461 0.000151059 0)
(0.00187977 0.000170871 0)
(0.0018739 0.000193242 0)
(0.00186719 0.000218353 0)
(0.00185883 0.000246727 0)
(0.00184947 0.000278398 0)
(0.00183741 0.000314256 0)
(0.00182428 0.000353893 0)
(0.00180663 0.000398968 0)
(0.00178811 0.000448006 0)
(0.00176214 0.000504184 0)
(0.00173567 0.000563854 0)
(0.00169786 0.000632814 0)
(0.00165886 0.000703844 0)
(0.00160583 0.000785967 0)
(0.0015456 0.000868599 0)
(0.00147596 0.000960676 0)
(0.00138394 0.00105534 0)
(0.00128482 0.00115376 0)
(0.00116367 0.00125162 0)
(0.00102886 0.00134685 0)
(0.000873346 0.00143533 0)
(0.000701917 0.00151345 0)
(0.000513835 0.00157682 0)
(0.000313911 0.00162164 0)
(0.000105458 0.00164487 0)
(0.00191445 9.08894e-07 0)
(0.00191444 2.74089e-06 0)
(0.00191442 4.61575e-06 0)
(0.00191439 6.56279e-06 0)
(0.00191435 8.61243e-06 0)
(0.0019143 1.07967e-05 0)
(0.00191423 1.31498e-05 0)
(0.00191415 1.57084e-05 0)
(0.00191405 1.85125e-05 0)
(0.00191394 2.16059e-05 0)
(0.0019138 2.50368e-05 0)
(0.00191363 2.88587e-05 0)
(0.00191343 3.31313e-05 0)
(0.00191318 3.79209e-05 0)
(0.0019129 4.3302e-05 0)
(0.00191255 4.93583e-05 0)
(0.00191213 5.61838e-05 0)
(0.00191163 6.38838e-05 0)
(0.00191103 7.25778e-05 0)
(0.00191029 8.23986e-05 0)
(0.00190939 9.34991e-05 0)
(0.00190831 0.000106045 0)
(0.00190696 0.000120235 0)
(0.00190534 0.000136269 0)
(0.00190328 0.000154413 0)
(0.00190084 0.000174893 0)
(0.00189765 0.000198084 0)
(0.00189395 0.000224193 0)
(0.00188895 0.000253813 0)
(0.00188331 0.000286972 0)
(0.0018754 0.000324763 0)
(0.00186675 0.000366584 0)
(0.00185423 0.000414771 0)
(0.00184078 0.00046685 0)
(0.00182111 0.000528343 0)
(0.00179984 0.000591719 0)
(0.00176958 0.000670433 0)
(0.00173513 0.000744546 0)
(0.00169031 0.000845142 0)
(0.00163396 0.000927895 0)
(0.00157044 0.00104777 0)
(0.00148733 0.00115314 0)
(0.00138911 0.00126843 0)
(0.00126881 0.0013829 0)
(0.00112847 0.00149653 0)
(0.000964835 0.00160386 0)
(0.000779801 0.00169928 0)
(0.000573826 0.00177752 0)
(0.000351682 0.00183316 0)
(0.000118408 0.00186219 0)
(0.00191624 9.06632e-07 0)
(0.00191626 2.73412e-06 0)
(0.00191629 4.60448e-06 0)
(0.00191635 6.54708e-06 0)
(0.00191643 8.59238e-06 0)
(0.00191652 1.07725e-05 0)
(0.00191664 1.31216e-05 0)
(0.00191678 1.56767e-05 0)
(0.00191695 1.84779e-05 0)
(0.00191714 2.15692e-05 0)
(0.00191736 2.49993e-05 0)
(0.00191761 2.88221e-05 0)
(0.00191788 3.3098e-05 0)
(0.00191819 3.78942e-05 0)
(0.00191852 4.32864e-05 0)
(0.00191889 4.93598e-05 0)
(0.00191929 5.62103e-05 0)
(0.00191971 6.39461e-05 0)
(0.00192015 7.26899e-05 0)
(0.00192061 8.25792e-05 0)
(0.00192107 9.37721e-05 0)
(0.00192152 0.000106443 0)
(0.00192191 0.000120797 0)
(0.00192227 0.000137052 0)
(0.00192243 0.000155481 0)
(0.00192253 0.000176343 0)
(0.00192217 0.00020002 0)
(0.00192176 0.000226783 0)
(0.00192031 0.000257211 0)
(0.00191895 0.000291486 0)
(0.00191536 0.000330589 0)
(0.00191241 0.000374319 0)
(0.00190481 0.000424556 0)
(0.00189932 0.00047994 0)
(0.00188441 0.000544427 0)
(0.0018748 0.000613622 0)
(0.0018475 0.000696146 0)
(0.00182993 0.000780636 0)
(0.00178536 0.000884471 0)
(0.00174401 0.000985076 0)
(0.00169651 0.00110295 0)
(0.00160001 0.00123113 0)
(0.00150979 0.00136619 0)
(0.00138702 0.00150513 0)
(0.00124522 0.00164309 0)
(0.00107187 0.00177529 0)
(0.000871962 0.00189521 0)
(0.00064493 0.00199505 0)
(0.000396812 0.00206684 0)
(0.000133879 0.00210451 0)
(0.00191801 8.90629e-07 0)
(0.00191806 2.6859e-06 0)
(0.00191815 4.52343e-06 0)
(0.00191829 6.43214e-06 0)
(0.00191849 8.44208e-06 0)
(0.00191873 1.05849e-05 0)
(0.00191903 1.28945e-05 0)
(0.0019194 1.54073e-05 0)
(0.00191982 1.8163e-05 0)
(0.00192032 2.12052e-05 0)
(0.0019209 2.45823e-05 0)
(0.00192156 2.83478e-05 0)
(0.00192231 3.25618e-05 0)
(0.00192316 3.72915e-05 0)
(0.00192412 4.26126e-05 0)
(0.00192521 4.86104e-05 0)
(0.00192642 5.53814e-05 0)
(0.00192777 6.30348e-05 0)
(0.00192927 7.16947e-05 0)
(0.00193094 8.15013e-05 0)
(0.00193276 9.26156e-05 0)
(0.00193477 0.000105217 0)
(0.00193693 0.000119518 0)
(0.0019393 0.000135745 0)
(0.00194175 0.000154182 0)
(0.00194445 0.00017511 0)
(0.00194703 0.000198921 0)
(0.00194995 0.000225938 0)
(0.0019523 0.000256743 0)
(0.00195516 0.000291619 0)
(0.00195651 0.000331554 0)
(0.00195876 0.000376489 0)
(0.00195765 0.000428424 0)
(0.00195815 0.000485942 0)
(0.00195201 0.000553974 0)
(0.0019484 0.000626207 0)
(0.00193312 0.000717312 0)
(0.00191953 0.000802684 0)
(0.00189049 0.000933896 0)
(0.00184789 0.00101186 0)
(0.00181137 0.00119321 0)
(0.00174508 0.00133672 0)
(0.0016574 0.00147999 0)
(0.00153993 0.00164353 0)
(0.001393 0.00180738 0)
(0.0012117 0.00197104 0)
(0.000994977 0.00211903 0)
(0.000741876 0.00224403 0)
(0.00045886 0.00233466 0)
(0.000155292 0.00238275 0)
(0.00191974 8.6109e-07 0)
(0.00191981 2.59686e-06 0)
(0.00191996 4.3736e-06 0)
(0.00192019 6.21938e-06 0)
(0.00192049 8.16337e-06 0)
(0.00192088 1.02363e-05 0)
(0.00192136 1.24711e-05 0)
(0.00192194 1.49031e-05 0)
(0.00192263 1.75711e-05 0)
(0.00192343 2.05177e-05 0)
(0.00192435 2.37899e-05 0)
(0.00192542 2.74402e-05 0)
(0.00192664 3.15274e-05 0)
(0.00192803 3.61175e-05 0)
(0.00192961 4.12849e-05 0)
(0.00193139 4.71138e-05 0)
(0.00193341 5.36997e-05 0)
(0.00193568 6.11509e-05 0)
(0.00193824 6.95909e-05 0)
(0.0019411 7.91603e-05 0)
(0.00194429 9.002e-05 0)
(0.00194786 0.000102353 0)
(0.0019518 0.000116371 0)
(0.00195621 0.000132313 0)
(0.00196098 0.00015046 0)
(0.00196634 0.00017112 0)
(0.00197194 0.000194679 0)
(0.00197837 0.000221523 0)
(0.00198462 0.000252199 0)
(0.0019922 0.000287156 0)
(0.00199846 0.000327235 0)
(0.00200727 0.000372822 0)
(0.00201198 0.000425418 0)
(0.00202225 0.000484812 0)
(0.00202176 0.000554348 0)
(0.00203474 0.000631139 0)
(0.0020203 0.000724717 0)
(0.00204201 0.000821136 0)
(0.00199018 0.000954088 0)
(0.0020493 0.00106206 0)
(0.00199873 0.00119253 0)
(0.00183067 0.00119302 0)
(0.00178414 0.00136832 0)
(0.00169698 0.00156184 0)
(0.00157175 0.0017631 0)
(0.00140071 0.00196878 0)
(0.00118045 0.00217067 0)
(0.000914124 0.00235472 0)
(0.000607217 0.00250369 0)
(0.00026962 0.00260371 0)
(0.0019214 8.18419e-07 0)
(0.0019215 2.46821e-06 0)
(0.0019217 4.15705e-06 0)
(0.001922 5.91171e-06 0)
(0.00192242 7.76e-06 0)
(0.00192295 9.73128e-06 0)
(0.0019236 1.18569e-05 0)
(0.00192439 1.41708e-05 0)
(0.00192532 1.67101e-05 0)
(0.00192641 1.95154e-05 0)
(0.00192768 2.26319e-05 0)
(0.00192913 2.61102e-05 0)
(0.0019308 3.00067e-05 0)
(0.00193271 3.43852e-05 0)
(0.00193489 3.93174e-05 0)
(0.00193736 4.48851e-05 0)
(0.00194016 5.11809e-05 0)
(0.00194333 5.83106e-05 0)
(0.0019469 6.63945e-05 0)
(0.00195094 7.55711e-05 0)
(0.00195547 8.59983e-05 0)
(0.00196057 9.78586e-05 0)
(0.00196626 0.00011136 0)
(0.00197268 0.000126747 0)
(0.00197975 0.000144295 0)
(0.00198774 0.000164332 0)
(0.00199639 0.000187224 0)
(0.00200627 0.000213426 0)
(0.00201657 0.000243407 0)
(0.00202863 0.000277831 0)
(0.00204039 0.000317253 0)
(0.00205489 0.000362726 0)
(0.0020673 0.000414722 0)
(0.0020844 0.000475226 0)
(0.00209529 0.000543765 0)
(0.00211522 0.000625227 0)
(0.00211916 0.000714316 0)
(0.00214413 0.000827123 0)
(0.00212639 0.000935465 0)
(0.00217176 0.00110556 0)
(0.00221604 0.00121285 0)
(0.00200021 0.00129811 0)
(0.00196872 0.00149845 0)
(0.00189712 0.00172012 0)
(0.001781 0.00195672 0)
(0.00161282 0.00219849 0)
(0.00137306 0.00244858 0)
(0.00107562 0.00267827 0)
(0.000721087 0.00286305 0)
(0.000321091 0.00298147 0)
(0.00192296 7.63237e-07 0)
(0.00192308 2.30182e-06 0)
(0.00192333 3.87693e-06 0)
(0.00192371 5.51358e-06 0)
(0.00192423 7.23781e-06 0)
(0.0019249 9.07711e-06 0)
(0.00192571 1.10609e-05 0)
(0.0019267 1.32209e-05 0)
(0.00192786 1.55919e-05 0)
(0.00192923 1.82123e-05 0)
(0.00193081 2.11245e-05 0)
(0.00193264 2.4376e-05 0)
(0.00193474 2.80203e-05 0)
(0.00193715 3.21175e-05 0)
(0.00193989 3.67358e-05 0)
(0.00194301 4.19526e-05 0)
(0.00194656 4.78562e-05 0)
(0.00195058 5.45475e-05 0)
(0.00195514 6.21418e-05 0)
(0.0019603 7.07723e-05 0)
(0.00196611 8.0591e-05 0)
(0.0019727 9.1776e-05 0)
(0.00198009 0.000104528 0)
(0.00198846 0.00011909 0)
(0.00199778 0.000135728 0)
(0.00200838 0.00015478 0)
(0.00202001 0.000176593 0)
(0.00203339 0.000201658 0)
(0.00204768 0.000230411 0)
(0.00206451 0.000263605 0)
(0.00208159 0.000301736 0)
(0.0021027 0.00034604 0)
(0.00212213 0.00039693 0)
(0.0021486 0.000456623 0)
(0.00216863 0.000524903 0)
(0.00220173 0.000606331 0)
(0.00221799 0.000697844 0)
(0.00225855 0.000811239 0)
(0.00226282 0.000930397 0)
(0.00230563 0.00109646 0)
(0.00242001 0.00121114 0)
(0.00219436 0.00136634 0)
(0.00218518 0.00159137 0)
(0.00213574 0.00184748 0)
(0.00203838 0.00212868 0)
(0.00189419 0.0024028 0)
(0.00162007 0.00273172 0)
(0.00129015 0.00303447 0)
(0.000876708 0.00327955 0)
(0.000391911 0.00343488 0)
(0.0019244 6.96346e-07 0)
(0.00192455 2.10011e-06 0)
(0.00192484 3.53729e-06 0)
(0.00192529 5.03076e-06 0)
(0.00192591 6.60435e-06 0)
(0.00192669 8.28324e-06 0)
(0.00192766 1.00944e-05 0)
(0.00192883 1.20668e-05 0)
(0.00193021 1.42326e-05 0)
(0.00193183 1.66269e-05 0)
(0.00193371 1.92887e-05 0)
(0.00193589 2.22619e-05 0)
(0.00193839 2.55957e-05 0)
(0.00194125 2.93457e-05 0)
(0.00194452 3.35749e-05 0)
(0.00194825 3.83553e-05 0)
(0.00195249 4.37688e-05 0)
(0.00195732 4.99097e-05 0)
(0.00196279 5.68855e-05 0)
(0.001969 6.48216e-05 0)
(0.00197604 7.38604e-05 0)
(0.00198401 8.41713e-05 0)
(0.00199301 9.59432e-05 0)
(0.00200323 0.000109412 0)
(0.00201469 0.000124824 0)
(0.00202776 0.000142522 0)
(0.00204229 0.000162816 0)
(0.00205897 0.000186237 0)
(0.00207722 0.000213129 0)
(0.00209847 0.000244402 0)
(0.00212111 0.000280273 0)
(0.00214811 0.000322517 0)
(0.00217558 0.000370665 0)
(0.00220971 0.000428628 0)
(0.00224188 0.000493502 0)
(0.00228456 0.00057476 0)
(0.0023198 0.000661973 0)
(0.00237183 0.000779254 0)
(0.00240568 0.000894987 0)
(0.00246334 0.00106993 0)
(0.00261213 0.00118382 0)
(0.00240932 0.00139319 0)
(0.00243277 0.00164263 0)
(0.00241542 0.00193908 0)
(0.0023387 0.00229532 0)
(0.00223636 0.0027487 0)
(0.0019688 0.00316429 0)
(0.00157526 0.00356461 0)
(0.00104678 0.00390101 0)
(0.000404214 0.00410695 0)
(0.0019257 6.18759e-07 0)
(0.00192586 1.86614e-06 0)
(0.0019262 3.14327e-06 0)
(0.00192672 4.47054e-06 0)
(0.00192742 5.86919e-06 0)
(0.00192831 7.36165e-06 0)
(0.00192942 8.97194e-06 0)
(0.00193075 1.07261e-05 0)
(0.00193233 1.26526e-05 0)
(0.00193418 1.47829e-05 0)
(0.00193633 1.71521e-05 0)
(0.00193882 1.97994e-05 0)
(0.00194168 2.27688e-05 0)
(0.00194496 2.61105e-05 0)
(0.00194871 2.98812e-05 0)
(0.00195299 3.41458e-05 0)
(0.00195787 3.89783e-05 0)
(0.00196342 4.44642e-05 0)
(0.00196974 5.0701e-05 0)
(0.00197692 5.78033e-05 0)
(0.00198506 6.59008e-05 0)
(0.00199432 7.51499e-05 0)
(0.0020048 8.57232e-05 0)
(0.00201673 9.78412e-05 0)
(0.0020302 0.000111731 0)
(0.00204558 0.000127718 0)
(0.00206282 0.000146088 0)
(0.00208265 0.000167355 0)
(0.00210463 0.000191842 0)
(0.00213025 0.000220429 0)
(0.00215808 0.000253363 0)
(0.00219121 0.000292299 0)
(0.00222603 0.000337044 0)
(0.00226888 0.000390969 0)
(0.00231172 0.000452409 0)
(0.0023667 0.000528703 0)
(0.00241823 0.000613882 0)
(0.00248671 0.000724758 0)
(0.00254744 0.000843662 0)
(0.00262529 0.0010098 0)
(0.00280618 0.00112289 0)
(0.00264355 0.00137361 0)
(0.00271124 0.00164156 0)
(0.00274567 0.00196749 0)
(0.00272986 0.00235698 0)
(0.00270475 0.00292342 0)
(0.00246992 0.00347018 0)
(0.00205177 0.00403959 0)
(0.00141648 0.0045501 0)
(0.000577688 0.00487893 0)
(0.00192683 5.31628e-07 0)
(0.00192702 1.60337e-06 0)
(0.00192739 2.70073e-06 0)
(0.00192796 3.84126e-06 0)
(0.00192874 5.04324e-06 0)
(0.00192973 6.32601e-06 0)
(0.00193095 7.71028e-06 0)
(0.00193243 9.2185e-06 0)
(0.00193418 1.08753e-05 0)
(0.00193623 1.27078e-05 0)
(0.00193862 1.47463e-05 0)
(0.00194138 1.70248e-05 0)
(0.00194456 1.95815e-05 0)
(0.00194821 2.24598e-05 0)
(0.00195239 2.57092e-05 0)
(0.00195716 2.93859e-05 0)
(0.0019626 3.35546e-05 0)
(0.0019688 3.82901e-05 0)
(0.00197585 4.36776e-05 0)
(0.00198389 4.9818e-05 0)
(0.00199302 5.6825e-05 0)
(0.00200342 6.48375e-05 0)
(0.00201523 7.40075e-05 0)
(0.00202869 8.45333e-05 0)
(0.00204395 9.66137e-05 0)
(0.0020614 0.000110549 0)
(0.0020811 0.000126584 0)
(0.00210377 0.000145211 0)
(0.00212919 0.00016668 0)
(0.00215871 0.000191885 0)
(0.00219148 0.00022092 0)
(0.00223004 0.000255573 0)
(0.0022722 0.000295292 0)
(0.00232267 0.000343924 0)
(0.00237674 0.000398981 0)
(0.00244267 0.000468987 0)
(0.00251177 0.000546589 0)
(0.00259683 0.000650274 0)
(0.00268477 0.000762441 0)
(0.00279034 0.000919916 0)
(0.00299382 0.00102289 0)
(0.00288982 0.00130231 0)
(0.00301348 0.00158058 0)
(0.00311812 0.00193121 0)
(0.00318747 0.00237176 0)
(0.00327237 0.00302616 0)
(0.0031285 0.0037411 0)
(0.00273299 0.00455506 0)
(0.00197834 0.00536524 0)
(0.000841235 0.00593901 0)
(0.00192779 4.36303e-07 0)
(0.00192799 1.31589e-06 0)
(0.00192839 2.21653e-06 0)
(0.00192901 3.15266e-06 0)
(0.00192985 4.13932e-06 0)
(0.00193092 5.19241e-06 0)
(0.00193225 6.32898e-06 0)
(0.00193385 7.56751e-06 0)
(0.00193574 8.92827e-06 0)
(0.00193797 1.04337e-05 0)
(0.00194056 1.21087e-05 0)
(0.00194355 1.39814e-05 0)
(0.001947 1.60835e-05 0)
(0.00195096 1.84507e-05 0)
(0.00195549 2.11241e-05 0)
(0.00196067 2.41504e-05 0)
(0.00196659 2.75834e-05 0)
(0.00197334 3.14851e-05 0)
(0.00198103 3.5927e-05 0)
(0.00198979 4.09931e-05 0)
(0.00199977 4.67788e-05 0)
(0.00201114 5.34012e-05 0)
(0.00202409 6.09877e-05 0)
(0.00203887 6.97072e-05 0)
(0.00205567 7.97275e-05 0)
(0.00207492 9.1306e-05 0)
(0.00209676 0.000104652 0)
(0.00212191 0.00012019 0)
(0.00215034 0.000138143 0)
(0.00218336 0.000159273 0)
(0.00222044 0.000183718 0)
(0.00226404 0.000212947 0)
(0.00231254 0.000246721 0)
(0.00237041 0.000288034 0)
(0.00243418 0.000335565 0)
(0.00251123 0.00039553 0)
(0.00259574 0.000464039 0)
(0.00269806 0.000553827 0)