/*--------------------------------*- C++ -*----------------------------------*\
| =========                 |                                                 |
| \\      /  F ield         | foam-extend: Open Source CFD                    |
|  \\    /   O peration     | Version:     4.0                                |
|   \\  /    A nd           | Web:         http://www.foam-extend.org         |
|    \\/     M anipulation  |                                                 |
\*---------------------------------------------------------------------------*/
FoamFile
{
    version     2.0;
    format      ascii;
    class       volScalarField;
    location    "5e-05";
    object      k;
}
// * * * * * * * * * * * * * * * * * * * * * * * * * * * * * * * * * * * * * //

dimensions      [0 2 -2 0 0 0 0];

internalField   nonuniform List<scalar> 
28770
(
0.00928546
0.00128266
0.00137009
0.00187727
0.00236606
0.00271993
0.00293485
0.00304574
0.00309426
0.00311168
0.00311535
0.00311432
0.00311119
0.00310691
0.00310179
0.00309605
0.00308944
0.00308211
0.0030737
0.00306441
0.00305378
0.0030421
0.00302878
0.00301422
0.00299767
0.0029797
0.00295937
0.00293743
0.00291275
0.00288634
0.00285688
0.00282564
0.00279114
0.00275497
0.00271557
0.00267484
0.00263121
0.00258685
0.00254025
0.00249326
0.00244306
0.00238647
0.0023085
0.0021805
0.00195157
0.00157059
0.00103991
0.000483459
0.000111691
7.50044e-06
0.043544
0.0294137
0.039364
0.054871
0.0690699
0.0793781
0.0856463
0.0888823
0.0902986
0.0908071
0.0909137
0.0908824
0.0907897
0.0906634
0.0905116
0.0903424
0.0901467
0.0899306
0.0896815
0.0894077
0.0890929
0.0887487
0.0883543
0.0879253
0.0874356
0.086906
0.0863043
0.085658
0.0849282
0.0841506
0.0832793
0.0823597
0.0813399
0.0802759
0.0791118
0.0779138
0.0766259
0.0753218
0.0739472
0.0725663
0.0710867
0.0694234
0.0671287
0.0633681
0.0566446
0.04547
0.0299261
0.0136752
0.00293522
0.000114492
0.0989875
0.153889
0.245665
0.347769
0.437341
0.502276
0.541872
0.56239
0.571424
0.574712
0.575457
0.575307
0.574787
0.574059
0.57318
0.572199
0.571064
0.56981
0.568364
0.566773
0.564945
0.562942
0.56065
0.55815
0.555299
0.552208
0.548698
0.544918
0.540651
0.536092
0.530983
0.525575
0.519576
0.513297
0.506422
0.499323
0.491683
0.483919
0.475719
0.467437
0.45849
0.448221
0.433634
0.409022
0.364331
0.289654
0.186181
0.0802143
0.0151532
0.000542643
0.16856
0.40977
0.713322
1.02444
1.29053
1.48215
1.59912
1.66007
1.68718
1.69727
1.69984
1.69963
1.6984
1.69659
1.69438
1.6919
1.68904
1.68587
1.68221
1.67819
1.67356
1.66848
1.66266
1.65632
1.64906
1.64119
1.63224
1.62258
1.61165
1.59996
1.58682
1.57288
1.55736
1.54108
1.52319
1.50466
1.48463
1.46421
1.44251
1.42041
1.39608
1.36701
1.32328
1.24578
1.10187
0.86123
0.53453
0.216468
0.0381183
0.00133634
0.245181
0.732039
1.34239
1.9601
2.48239
2.85634
3.08471
3.20443
3.25841
3.27909
3.28507
3.28531
3.28376
3.28114
3.27786
3.27416
3.26989
3.26516
3.25971
3.25369
3.24677
3.23916
3.23044
3.2209
3.20999
3.19812
3.1846
3.16997
3.15339
3.13558
3.11551
3.09414
3.07027
3.04512
3.01735
2.98847
2.95707
2.92487
2.89038
2.85471
2.81404
2.76186
2.67617
2.51418
2.20627
1.69409
1.01878
0.39499
0.0672261
0.00233766
0.313921
1.02222
1.92794
2.85378
3.63869
4.20134
4.54619
4.72844
4.81187
4.84481
4.85536
4.85707
4.85591
4.85344
4.85017
4.84644
4.84213
4.83734
4.83183
4.82573
4.81872
4.811
4.80215
4.79245
4.78134
4.76923
4.75542
4.74044
4.72343
4.7051
4.6844
4.66229
4.63751
4.6113
4.58224
4.55188
4.51869
4.48445
4.44734
4.40798
4.36027
4.29165
4.16505
3.908
3.40833
2.58128
1.51737
0.572573
0.095766
0.00331701
0.366464
1.22835
2.3399
3.49092
4.47689
5.18909
5.62897
5.86376
5.97289
6.01714
6.0324
6.0362
6.03595
6.03439
6.03202
6.02925
6.02603
6.02245
6.01834
6.01379
6.00857
6.00281
5.99622
5.98899
5.98073
5.97171
5.96144
5.9503
5.93765
5.92403
5.90865
5.89225
5.87385
5.85441
5.83285
5.81035
5.78572
5.76024
5.73226
5.70116
5.65895
5.58657
5.43316
5.09869
4.43343
3.33093
1.93181
0.718114
0.119058
0.00411558
0.401397
1.35161
2.57765
3.85443
4.95976
5.76766
6.27097
6.54221
6.66989
6.72271
6.74178
6.74747
6.74829
6.74767
6.74637
6.74475
6.74286
6.74075
6.73834
6.73568
6.73265
6.7293
6.7255
6.72134
6.71663
6.71151
6.70572
6.69949
6.69248
6.68502
6.67669
6.66793
6.65823
6.6482
6.63724
6.62608
6.61409
6.60191
6.58831
6.57129
6.54174
6.47542
6.31172
5.93066
5.1551
3.8609
2.22513
0.821405
0.135647
0.0046847
0.421119
1.41589
2.69645
4.03172
5.19541
6.05375
6.59267
6.88528
7.02425
7.08247
7.10404
7.11099
7.11269
7.11269
7.11219
7.11143
7.11053
7.10953
7.1084
7.10715
7.10576
7.10425
7.10255
7.10074
7.09873
7.0966
7.09427
7.09187
7.08928
7.08669
7.08397
7.08139
7.07879
7.07655
7.07449
7.07305
7.07209
7.07176
7.07137
7.06778
7.05165
6.99544
6.83321
6.4332
5.60094
4.19757
2.41774
0.891572
0.147158
0.00508121
0.430474
1.44523
2.749
4.11001
5.29667
6.17669
6.73351
7.03708
7.18196
7.24308
7.26602
7.27368
7.27587
7.2763
7.27621
7.27595
7.27563
7.27527
7.27488
7.27447
7.27403
7.27359
7.27314
7.27272
7.27231
7.27198
7.27173
7.27165
7.27175
7.27217
7.27294
7.27428
7.27622
7.27907
7.28292
7.28809
7.29478
7.30294
7.31232
7.31931
7.31367
7.26802
7.11328
6.71196
5.85957
4.40475
2.54463
0.940667
0.155472
0.0053693
0.434264
1.457
2.76983
4.14112
5.33562
6.22349
6.78804
7.09665
7.2443
7.3068
7.33041
7.33841
7.34084
7.34148
7.3416
7.34158
7.34153
7.34149
7.34146
7.34146
7.3415
7.34159
7.34175
7.34202
7.34241
7.34299
7.34379
7.34491
7.34639
7.34841
7.35102
7.35449
7.35892
7.36467
7.3719
7.38105
7.3924
7.40601
7.42192
7.43636
7.44023
7.40414
7.26096
6.87042
6.02207
4.5517
2.64628
0.983895
0.163154
0.0056379
0.435595
1.46115
2.77722
4.15228
5.349
6.2391
6.80663
7.11743
7.26633
7.32945
7.35336
7.36152
7.36405
7.36477
7.36498
7.36506
7.36513
7.36522
7.36535
7.36552
7.36576
7.36609
7.36651
7.36709
7.36783
7.36882
7.3701
7.37177
7.37391
7.3767
7.38024
7.38483
7.39059
7.398
7.40724
7.41893
7.43339
7.45095
7.47176
7.49225
7.50459
7.47762
7.34891
6.97625
6.14489
4.6767
2.74148
1.02698
0.171012
0.00591386
0.43599
1.4624
2.77951
4.15587
5.35298
6.24339
6.81197
7.12376
7.27327
7.33671
7.36076
7.36898
7.37155
7.37231
7.37256
7.37268
7.37279
7.37293
7.37311
7.37336
7.37367
7.37409
7.37462
7.37532
7.37621
7.37738
7.37885
7.38079
7.38323
7.38642
7.39041
7.39564
7.40214
7.41061
7.42108
7.43459
7.45114
7.47182
7.49634
7.52178
7.54434
7.52822
7.41725
7.06984
6.26774
4.81593
2.85678
1.08238
0.18144
0.00628199
0.436067
1.46266
2.78004
4.15684
5.35399
6.24401
6.81291
7.12531
7.27519
7.33882
7.36295
7.37122
7.37381
7.37458
7.37483
7.37497
7.3751
7.37526
7.37546
7.37573
7.37607
7.37652
7.37709
7.37785
7.37879
7.38005
7.38162
7.3837
7.3863
7.38973
7.39402
7.39967
7.40673
7.41602
7.42756
7.44272
7.46144
7.48563
7.51482
7.54763
7.57948
7.57575
7.48729
7.17277
6.41016
4.98313
2.99988
1.1535
0.195056
0.00675291
0.436043
1.46261
2.78002
4.15697
5.35433
6.24362
6.81249
7.12547
7.27565
7.33943
7.36363
7.37192
7.37452
7.3753
7.37556
7.3757
7.37583
7.37599
7.3762
7.37648
7.37683
7.3773
7.37789
7.37867
7.37965
7.38096
7.38259
7.38477
7.38749
7.39111
7.39564
7.40168
7.40922
7.4193
7.43183
7.44874
7.46937
7.49763
7.52932
7.57033
7.6162
7.63432
7.57038
7.30018
6.59605
5.21454
3.21147
1.2679
0.218085
0.00718484
0.435991
1.46247
2.77984
4.15688
5.35458
6.24309
6.8118
7.12534
7.27582
7.33973
7.36399
7.37231
7.37492
7.3757
7.37596
7.37611
7.37623
7.3764
7.37661
7.3769
7.37725
7.37773
7.37833
7.37914
7.38014
7.38148
7.38317
7.38541
7.38824
7.39201
7.39676
7.40312
7.41112
7.42188
7.43541
7.4537
7.47642
7.50728
7.54368
7.59414
7.64505
7.67093
7.66279
7.50265
6.98118
5.82022
3.93557
1.84155
0.446311
0.0219796
0.435931
1.46232
2.77964
4.15677
5.35488
6.24273
6.81126
7.12531
7.27611
7.34017
7.36449
7.37283
7.37545
7.37624
7.3765
7.37664
7.37677
7.37694
7.37715
7.37744
7.3778
7.37828
7.37889
7.37971
7.38073
7.38211
7.38384
7.38616
7.38908
7.39301
7.39797
7.40464
7.41313
7.42461
7.43928
7.45918
7.48462
7.51878
7.56261
7.61904
7.68293
7.72838
7.75897
7.66271
7.23445
6.17407
4.32699
2.12565
0.535535
0.0245764
0.435877
1.46219
2.77948
4.15674
5.35527
6.24267
6.81107
7.12561
7.27672
7.34095
7.36534
7.37372
7.37634
7.37714
7.37739
7.37754
7.37767
7.37784
7.37805
7.37834
7.3787
7.37919
7.3798
7.38063
7.38167
7.38308
7.38485
7.38722
7.39023
7.39426
7.3994
7.40632
7.41522
7.42735
7.44309
7.46464
7.4927
7.531
7.58127
7.64848
7.72316
7.79498
7.87048
7.84765
7.53598
6.60158
4.80227
2.46774
0.64844
0.0305268
0.435832
1.4621
2.77941
4.15683
5.35581
6.24298
6.81135
7.12635
7.27782
7.34224
7.36672
7.37514
7.37778
7.37858
7.37883
7.37898
7.3791
7.37928
7.37948
7.37978
7.38013
7.38063
7.38125
7.38209
7.38315
7.38458
7.38639
7.38881
7.39188
7.39599
7.40125
7.40835
7.41762
7.43034
7.44719
7.4704
7.5013
7.54387
7.60095
7.67935
7.76712
7.86455
7.99137
8.05621
7.88447
7.04353
5.2198
2.70039
0.686834
0.0234552
0.435802
1.46207
2.77943
4.15708
5.35653
6.2437
6.81217
7.12762
7.27947
7.34412
7.36872
7.37719
7.37985
7.38065
7.38091
7.38106
7.38118
7.38135
7.38156
7.38185
7.38221
7.38272
7.38334
7.3842
7.38527
7.38672
7.38855
7.39099
7.39409
7.39819
7.40348
7.41063
7.42016
7.43336
7.45123
7.47615
7.50988
7.55721
7.62139
7.71276
7.81344
7.9404
8.12171
8.28736
8.27674
7.71365
6.04796
3.37237
0.938235
0.0344506
0.435784
1.46208
2.77956
4.15748
5.35744
6.24482
6.81348
7.12935
7.2816
7.34652
7.37128
7.37982
7.3825
7.38332
7.38358
7.38373
7.38385
7.38403
7.38424
7.38454
7.3849
7.38541
7.38604
7.38691
7.388
7.38946
7.39131
7.39374
7.39681
7.40081
7.40601
7.41308
7.42276
7.43633
7.45516
7.48162
7.51823
7.56998
7.64159
7.74538
7.8607
8.01892
8.25696
8.52094
8.68016
8.45577
7.11997
4.36372
1.34463
0.0529121
0.43578
1.46213
2.77975
4.15798
5.35849
6.24628
6.81514
7.13133
7.28399
7.34923
7.37417
7.3828
7.38552
7.38635
7.38661
7.38676
7.38689
7.38707
7.38728
7.38758
7.38795
7.38847
7.38912
7.38999
7.3911
7.39257
7.39441
7.39678
7.39973
7.40352
7.40852
7.41542
7.42517
7.43903
7.45876
7.48666
7.52602
7.58198
7.66104
7.77644
7.90537
8.09754
8.3878
8.72961
9.04358
9.17752
8.39388
5.86311
2.10647
0.0939193
0.435782
1.4622
2.77997
4.15852
5.35956
6.2479
6.8169
7.13326
7.2863
7.35187
7.37701
7.38574
7.38849
7.38934
7.38961
7.38977
7.3899
7.39008
7.39029
7.3906
7.39098
7.39151
7.39217
7.39306
7.39417
7.39563
7.39743
7.39968
7.40243
7.40594
7.41069
7.41739
7.42718
7.44125
7.46177
7.49081
7.53269
7.59206
7.67811
7.80296
7.94492
8.17014
8.50425
8.90458
9.34733
9.82579
9.71316
8.07917
3.32651
0.362584
0.435789
1.46228
2.78017
4.15899
5.36051
6.24941
6.81845
7.13486
7.28822
7.3541
7.37942
7.38823
7.39103
7.39189
7.39217
7.39233
7.39246
7.39264
7.39286
7.39318
7.39357
7.3941
7.39477
7.39567
7.39678
7.39822
7.39994
7.40203
7.40455
7.40779
7.41232
7.41885
7.42869
7.44294
7.4641
7.49405
7.53796
7.59995
7.69175
7.82351
7.97529
8.23074
8.59454
9.04025
9.57783
10.3174
10.8589
10.6187
6.8523
1.43271
0.435794
1.46233
2.78032
4.15934
5.36121
6.25058
6.81955
7.13591
7.2895
7.35562
7.38108
7.38996
7.39278
7.39365
7.39393
7.3941
7.39423
7.39442
7.39464
7.39497
7.39536
7.3959
7.39657
7.39747
7.39858
7.39998
7.40162
7.40356
7.4059
7.40894
7.41333
7.41974
7.42961
7.44396
7.46554
7.49603
7.54129
7.60486
7.7005
7.83647
7.99441
8.27369
8.65619
9.13103
9.72717
10.615
11.6005
12.645
13.1778
9.57041
0.435798
1.46235
2.78038
4.15947
5.36148
6.2511
6.81998
7.13624
7.28994
7.35616
7.38169
7.3906
7.39343
7.39431
7.39459
7.39475
7.39489
7.39508
7.3953
7.39563
7.39602
7.39656
7.39724
7.39814
7.39924
7.40062
7.40222
7.40409
7.40637
7.40934
7.41368
7.42006
7.42994
7.44434
7.46607
7.49677
7.5425
7.60665
7.70359
7.84096
7.99894
8.2935
8.68417
9.1717
9.79208
10.7244
11.8684
13.4162
15.3512
17.3537
0.435794
1.46233
2.78032
4.15934
5.36121
6.25058
6.81955
7.13591
7.2895
7.35562
7.38108
7.38996
7.39278
7.39365
7.39393
7.3941
7.39423
7.39442
7.39464
7.39497
7.39536
7.3959
7.39657
7.39747
7.39858
7.39999
7.40163
7.40357
7.40591
7.40895
7.41334
7.41975
7.42961
7.44396
7.46554
7.49603
7.54129
7.60486
7.7005
7.83647
7.9885
8.28706
8.67486
9.15815
9.77058
10.6604
11.711
12.9635
13.6753
11.2076
0.435789
1.46228
2.78017
4.15899
5.36051
6.24941
6.81845
7.13486
7.28822
7.3541
7.37942
7.38823
7.39103
7.39189
7.39217
7.39233
7.39246
7.39264
7.39286
7.39318
7.39357
7.3941
7.39477
7.39567
7.39678
7.39822
7.39995
7.40205
7.40457
7.40781
7.41234
7.41886
7.42869
7.44294
7.4641
7.49405
7.53796
7.59995
7.69174
7.82351
7.96436
8.25481
8.62913
9.09155
9.66288
10.4111
11.089
11.2151
8.7987
1.80276
0.435782
1.4622
2.77997
4.15852
5.35956
6.2479
6.8169
7.13326
7.2863
7.35187
7.37701
7.38574
7.38849
7.38934
7.38961
7.38977
7.3899
7.39008
7.39029
7.3906
7.39098
7.39151
7.39217
7.39306
7.39417
7.39563
7.39743
7.39969
7.40245
7.40596
7.4107
7.41739
7.42718
7.44125
7.46177
7.49081
7.53269
7.59206
7.67811
7.80295
7.92947
8.20261
8.55282
8.9779
9.47261
9.966
10.0238
8.71128
4.6169
0.418058
0.43578
1.46213
2.77975
4.15798
5.35849
6.24628
6.81514
7.13133
7.28399
7.34923
7.37417
7.3828
7.38552
7.38635
7.38661
7.38676
7.38689
7.38707
7.38728
7.38758
7.38795
7.38847
7.38912
7.38999
7.3911
7.39257
7.39441
7.39678
7.39973
7.40353
7.40852
7.41542
7.42517
7.43903
7.45875
7.48665
7.52602
7.58198
7.66104
7.77644
7.88719
8.13487
8.44877
8.82168
9.20409
9.34733
8.72252
6.3466
2.39411
0.112822
0.435784
1.46208
2.77956
4.15748
5.35744
6.24482
6.81348
7.12935
7.2816
7.34652
7.37128
7.37982
7.3825
7.38332
7.38358
7.38373
7.38385
7.38403
7.38424
7.38454
7.3849
7.38541
7.38604
7.38691
7.388
7.38946
7.39131
7.39374
7.39681
7.40082
7.40601
7.41308
7.42276
7.43632
7.45516
7.48162
7.51822
7.56997
7.64158
7.74538
7.84015
8.05855
8.32374
8.62946
8.86928
8.63898
7.42507
4.68063
1.48653
0.0597762
0.435802
1.46207
2.77943
4.15708
5.35653
6.2437
6.81217
7.12762
7.27947
7.34412
7.36872
7.37719
7.37985
7.38065
7.38091
7.38106
7.38118
7.38135
7.38156
7.38185
7.38221
7.38272
7.38334
7.3842
7.38527
7.38672
7.38855
7.39099
7.39409
7.3982
7.40348
7.41063
7.42016
7.43336
7.45122
7.47615
7.50988
7.55721
7.62139
7.71276
7.79324
7.97888
8.18897
8.40566
8.47953
7.89586
6.29194
3.58251
1.01923
0.0379753
0.435832
1.4621
2.77941
4.15683
5.35581
6.24298
6.81135
7.12635
7.27782
7.34224
7.36672
7.37514
7.37778
7.37858
7.37883
7.37898
7.3791
7.37928
7.37948
7.37978
7.38013
7.38063
7.38125
7.38209
7.38315
7.38458
7.38639
7.38881
7.39188
7.39599
7.40125
7.40835
7.41762
7.43034
7.44718
7.4704
7.5013
7.54387
7.60094
7.67935
7.74646
7.90145
8.05537
8.17087
8.07716
7.19981
5.40554
2.8447
0.740184
0.0259041
0.435877
1.46219
2.77948
4.15674
5.35527
6.24267
6.81107
7.12561
7.27672
7.34095
7.36534
7.37372
7.37634
7.37714
7.37739
7.37754
7.37767
7.37784
7.37805
7.37834
7.3787
7.37919
7.3798
7.38063
7.38167
7.38308
7.38485
7.38722
7.39023
7.39426
7.3994
7.40632
7.41522
7.42735
7.44309
7.46464
7.4927
7.531
7.58127
7.64848
7.70594
7.82807
7.92951
7.94928
7.70656
6.84861
5.09266
2.68861
0.728209
0.0350878
0.435931
1.46232
2.77964
4.15677
5.35488
6.24273
6.81126
7.12531
7.27611
7.34017
7.36449
7.37283
7.37545
7.37624
7.3765
7.37664
7.37677
7.37694
7.37715
7.37744
7.3778
7.37828
7.37889
7.37971
7.38073
7.38211
7.38384
7.38616
7.38908
7.39301
7.39797
7.40464
7.41313
7.42461
7.43928
7.45918
7.48462
7.51878
7.56261
7.61904
7.66539
7.76016
7.81293
7.75164
7.37747
6.37582
4.55185
2.28678
0.587866
0.0272974
0.435991
1.46247
2.77984
4.15688
5.35458
6.24309
6.8118
7.12534
7.27582
7.33973
7.36399
7.37231
7.37492
7.3757
7.37596
7.37611
7.37623
7.3764
7.37661
7.3769
7.37725
7.37773
7.37833
7.37914
7.38014
7.38148
7.38317
7.38541
7.38824
7.39201
7.39676
7.40312
7.41112
7.42188
7.43541
7.4537
7.47642
7.50728
7.54368
7.59414
7.63086
7.69732
7.70842
7.57956
7.10311
5.99281
4.13015
1.98604
0.491559
0.0225691
0.436043
1.46261
2.78002
4.15697
5.35433
6.24362
6.81249
7.12547
7.27565
7.33943
7.36363
7.37192
7.37452
7.3753
7.37556
7.3757
7.37583
7.37599
7.3762
7.37648
7.37683
7.3773
7.37789
7.37867
7.37965
7.38096
7.38259
7.38477
7.38749
7.39111
7.39564
7.40168
7.40922
7.4193
7.43183
7.44874
7.46937
7.49763
7.52932
7.57033
7.6162
7.63431
7.57037
7.30018
6.59605
5.21454
3.21147
1.2679
0.218085
0.00718482
0.436067
1.46266
2.78004
4.15684
5.35399
6.24401
6.81291
7.12531
7.27519
7.33882
7.36295
7.37122
7.37381
7.37458
7.37483
7.37497
7.3751
7.37526
7.37546
7.37573
7.37607
7.37652
7.37709
7.37785
7.37879
7.38005
7.38162
7.3837
7.3863
7.38973
7.39402
7.39967
7.40673
7.41602
7.42756
7.44272
7.46144
7.48562
7.51482
7.54763
7.57948
7.57575
7.48729
7.17277
6.41016
4.98313
2.99988
1.15349
0.195056
0.00675291
0.43599
1.4624
2.77951
4.15587
5.35298
6.24339
6.81197
7.12376
7.27327
7.33671
7.36076
7.36898
7.37155
7.37231
7.37256
7.37268
7.37279
7.37293
7.37311
7.37336
7.37367
7.37409
7.37462
7.37532
7.37621
7.37738
7.37885
7.38079
7.38322
7.38642
7.39041
7.39564
7.40214
7.41061
7.42108
7.43459
7.45114
7.47182
7.49634
7.52178
7.54434
7.52822
7.41725
7.06984
6.26774
4.81593
2.85678
1.08238
0.18144
0.00628198
0.435595
1.46115
2.77722
4.15228
5.349
6.2391
6.80663
7.11743
7.26633
7.32945
7.35336
7.36152
7.36405
7.36477
7.36498
7.36506
7.36513
7.36522
7.36535
7.36552
7.36576
7.36609
7.36651
7.36709
7.36783
7.36882
7.3701
7.37177
7.37391
7.3767
7.38024
7.38483
7.39059
7.398
7.40724
7.41893
7.43339
7.45095
7.47176
7.49225
7.50459
7.47762
7.34891
6.97625
6.14489
4.6767
2.74148
1.02698
0.171012
0.00591386
0.434264
1.457
2.76983
4.14112
5.33562
6.22349
6.78804
7.09665
7.2443
7.3068
7.33041
7.33841
7.34084
7.34148
7.3416
7.34158
7.34153
7.34149
7.34146
7.34146
7.3415
7.34159
7.34175
7.34202
7.34241
7.34299
7.34379
7.34491
7.34639
7.34841
7.35102
7.35449
7.35892
7.36467
7.3719
7.38105
7.3924
7.40601
7.42192
7.43635
7.44023
7.40414
7.26095
6.87042
6.02207
4.5517
2.64628
0.983895
0.163154
0.0056379
0.430474
1.44523
2.749
4.11001
5.29667
6.17669
6.73351
7.03708
7.18196
7.24308
7.26602
7.27368
7.27587
7.2763
7.27621
7.27595
7.27563
7.27527
7.27488
7.27447
7.27403
7.27359
7.27315
7.27272
7.27231
7.27198
7.27173
7.27165
7.27175
7.27217
7.27294
7.27428
7.27622
7.27907
7.28292
7.28809
7.29478
7.30294
7.31232
7.31931
7.31367
7.26802
7.11328
6.71196
5.85957
4.40475
2.54463
0.940667
0.155472
0.00536929
0.421119
1.41589
2.69645
4.03172
5.19541
6.05375
6.59267
6.88528
7.02425
7.08247
7.10404
7.11099
7.11269
7.11269
7.11219
7.11143
7.11053
7.10953
7.1084
7.10716
7.10576
7.10425
7.10255
7.10074
7.09873
7.0966
7.09427
7.09187
7.08928
7.08669
7.08397
7.08139
7.07879
7.07655
7.07449
7.07305
7.07209
7.07176
7.07137
7.06778
7.05165
6.99544
6.83321
6.4332
5.60094
4.19757
2.41774
0.891572
0.147158
0.0050812
0.401397
1.35161
2.57765
3.85443
4.95976
5.76766
6.27097
6.54221
6.66989
6.72272
6.74179
6.74747
6.74829
6.74767
6.74637
6.74475
6.74286
6.74075
6.73834
6.73568
6.73265
6.72931
6.7255
6.72134
6.71663
6.71151
6.70572
6.69949
6.69248
6.68502
6.67669
6.66793
6.65823
6.6482
6.63724
6.62608
6.61409
6.60191
6.58831
6.57129
6.54174
6.47542
6.31172
5.93066
5.1551
3.8609
2.22513
0.821405
0.135647
0.0046847
0.366464
1.22835
2.3399
3.49092
4.47689
5.1891
5.62897
5.86376
5.97289
6.01714
6.0324
6.0362
6.03595
6.03439
6.03202
6.02925
6.02603
6.02245
6.01834
6.01379
6.00857
6.00282
5.99622
5.98899
5.98073
5.97171
5.96144
5.9503
5.93765
5.92403
5.90865
5.89225
5.87385
5.85441
5.83285
5.81035
5.78572
5.76024
5.73226
5.70116
5.65895
5.58657
5.43316
5.09869
4.43343
3.33093
1.93181
0.718114
0.119058
0.00411558
0.313921
1.02222
1.92794
2.85378
3.63869
4.20134
4.54619
4.72844
4.81187
4.84481
4.85536
4.85707
4.85591
4.85344
4.85017
4.84644
4.84213
4.83734
4.83183
4.82573
4.81872
4.811
4.80215
4.79244
4.78134
4.76923
4.75542
4.74044
4.72343
4.7051
4.6844
4.66229
4.63751
4.6113
4.58224
4.55188
4.51869
4.48445
4.44734
4.40798
4.36027
4.29164
4.16505
3.908
3.40833
2.58128
1.51737
0.572573
0.095766
0.00331701
0.245181
0.732038
1.34239
1.9601
2.48239
2.85635
3.08471
3.20443
3.25841
3.27909
3.28507
3.28531
3.28376
3.28114
3.27786
3.27416
3.26989
3.26516
3.25971
3.25369
3.24677
3.23916
3.23044
3.2209
3.20999
3.19812
3.1846
3.16997
3.15339
3.13557
3.1155
3.09414
3.07027
3.04512
3.01735
2.98847
2.95707
2.92487
2.89038
2.85471
2.81404
2.76186
2.67617
2.51418
2.20627
1.69409
1.01878
0.39499
0.0672261
0.00233766
0.16856
0.40977
0.713322
1.02444
1.29053
1.48216
1.59912
1.66007
1.68718
1.69727
1.69984
1.69963
1.6984
1.69659
1.69438
1.6919
1.68904
1.68587
1.68221
1.67819
1.67356
1.66848
1.66266
1.65632
1.64906
1.64119
1.63224
1.62258
1.61165
1.59996
1.58682
1.57288
1.55736
1.54108
1.52319
1.50466
1.48463
1.46421
1.44251
1.42041
1.39608
1.36701
1.32328
1.24578
1.10187
0.86123
0.53453
0.216469
0.0381184
0.00133634
0.0989874
0.153889
0.245665
0.34777
0.437341
0.502276
0.541872
0.56239
0.571425
0.574712
0.575457
0.575308
0.574787
0.57406
0.573181
0.572199
0.571065
0.56981
0.568364
0.566773
0.564945
0.562942
0.56065
0.55815
0.555299
0.552208
0.548698
0.544919
0.540651
0.536092
0.530983
0.525575
0.519576
0.513297
0.506422
0.499323
0.491683
0.483919
0.475719
0.467437
0.45849
0.448221
0.433634
0.409022
0.364331
0.289655
0.186181
0.0802145
0.0151533
0.000542646
0.043544
0.0294137
0.039364
0.054871
0.06907
0.0793782
0.0856464
0.0888824
0.0902987
0.0908072
0.0909137
0.0908825
0.0907898
0.0906635
0.0905117
0.0903425
0.0901468
0.0899307
0.0896816
0.0894077
0.089093
0.0887487
0.0883544
0.0879253
0.0874356
0.086906
0.0863044
0.0856581
0.0849283
0.0841506
0.0832793
0.0823597
0.08134
0.0802759
0.0791119
0.0779139
0.0766259
0.0753218
0.0739472
0.0725663
0.0710867
0.0694234
0.0671287
0.0633681
0.0566447
0.0454701
0.0299262
0.0136752
0.00293524
0.000114494
0.00928546
0.00128266
0.00137009
0.00187727
0.00236607
0.00271993
0.00293486
0.00304575
0.00309426
0.00311168
0.00311535
0.00311432
0.0031112
0.00310692
0.00310179
0.00309605
0.00308944
0.00308212
0.0030737
0.00306442
0.00305378
0.00304211
0.00302878
0.00301423
0.00299768
0.0029797
0.00295937
0.00293743
0.00291276
0.00288635
0.00285688
0.00282564
0.00279114
0.00275498
0.00271557
0.00267484
0.00263121
0.00258685
0.00254025
0.00249326
0.00244306
0.00238647
0.0023085
0.00218051
0.00195158
0.00157059
0.00103991
0.000483462
0.000111693
7.50066e-06
0.559437
0.148344
0.0848329
0.0496987
0.0283585
0.0158761
0.0088018
0.00485798
0.0026759
0.00147258
0.000809992
0.000445404
0.000244866
0.000134591
7.39631e-05
4.06384e-05
2.23281e-05
1.2284e-05
6.83931e-06
4.20765e-06
16.1438
10.663
6.17632
3.44809
1.90632
1.05079
0.57855
0.318377
0.175152
0.0963381
0.0529788
0.0291293
0.0160133
0.0088014
0.00483658
0.00265727
0.00145961
0.000801542
0.000439992
0.000241717
4.96808
2.17628
1.24895
0.720102
0.406291
0.226132
0.125033
0.068929
0.0379487
0.0208791
0.0114834
0.0063142
0.00347118
0.00190788
0.00104843
0.000576035
0.000316472
0.000174053
9.66632e-05
5.78814e-05
7.09836e-06
0.000107041
0.000504041
0.00122623
0.00210676
0.00291895
0.00351115
0.00385436
0.00400296
0.00403023
0.00400372
0.00395137
0.00388961
0.00382692
0.00376649
0.00370936
0.00365596
0.00360637
0.00356065
0.00351866
0.00348035
0.00344546
0.00341389
0.0033853
0.00335963
0.00333645
0.00331578
0.00329715
0.00328064
0.00326575
0.00325265
0.00324081
0.00323048
0.00322108
0.00321298
0.00320554
0.00319921
0.00319332
0.00318839
0.00318375
0.00317988
0.00317626
0.00317318
0.00317041
0.00316785
0.00316583
0.00316358
0.00316226
0.00316013
0.0031595
0.00315744
0.00315743
0.00315555
0.00315588
0.0031541
0.00315461
0.00315303
0.00315358
0.00315222
0.00315273
0.00315161
0.00315205
0.00315114
0.00315149
0.00315077
0.00315105
0.00315048
0.0031507
0.00315026
0.00315042
0.00315008
0.0031502
0.00314994
0.00315003
0.00314983
0.0031499
0.00314975
0.0031498
0.00314968
0.00314972
0.00314963
0.00314965
0.00314959
0.0031496
0.00314956
0.00314957
0.00314953
0.00314954
0.00314951
0.00314951
0.00314949
0.0031495
0.00314948
0.00314948
0.00314947
0.00314947
0.00314946
0.00314946
0.00314945
0.00314945
0.000106817
0.00277451
0.0141304
0.0350636
0.0607229
0.0844812
0.101866
0.111983
0.116399
0.117255
0.116516
0.115022
0.113248
0.111444
0.109703
0.108058
0.10652
0.105091
0.103774
0.102564
0.10146
0.100454
0.0995445
0.0987204
0.0979803
0.0973123
0.0967163
0.0961792
0.0957032
0.095274
0.0948963
0.0945548
0.094257
0.093986
0.0937524
0.0935377
0.0933552
0.0931855
0.0930432
0.0929094
0.092798
0.0926934
0.0926046
0.0925246
0.092451
0.0923926
0.0923276
0.0922895
0.0922281
0.0922099
0.0921504
0.0921504
0.0920959
0.0921057
0.0920542
0.0920692
0.0920228
0.0920393
0.0919994
0.0920149
0.0919817
0.0919951
0.0919682
0.0919791
0.0919577
0.0919664
0.0919496
0.0919562
0.0919432
0.0919483
0.0919382
0.091942
0.0919343
0.0919371
0.0919312
0.0919333
0.0919288
0.0919303
0.0919269
0.091928
0.0919254
0.0919262
0.0919242
0.0919248
0.0919233
0.0919237
0.0919226
0.0919228
0.091922
0.0919221
0.0919215
0.0919216
0.0919211
0.0919212
0.0919208
0.0919208
0.0919205
0.0919205
0.0919203
0.0919204
0.00046389
0.0130622
0.075742
0.201359
0.360873
0.511654
0.623913
0.690573
0.720791
0.728086
0.724596
0.716347
0.706168
0.695698
0.685565
0.675967
0.666988
0.658639
0.650937
0.643856
0.637392
0.631499
0.626165
0.621331
0.616987
0.613065
0.609563
0.606407
0.603608
0.601085
0.598863
0.596854
0.595101
0.593506
0.59213
0.590867
0.589792
0.588793
0.587955
0.587167
0.586511
0.585895
0.585373
0.5849
0.584469
0.584123
0.583743
0.583515
0.583156
0.583045
0.582698
0.582694
0.582377
0.582429
0.582131
0.582214
0.581947
0.582038
0.58181
0.581895
0.581706
0.581779
0.581625
0.581685
0.581563
0.58161
0.581514
0.58155
0.581476
0.581503
0.581446
0.581466
0.581422
0.581437
0.581404
0.581415
0.58139
0.581397
0.581378
0.581384
0.581369
0.581373
0.581362
0.581365
0.581357
0.581359
0.581352
0.581354
0.581349
0.58135
0.581346
0.581346
0.581344
0.581344
0.581342
0.581342
0.58134
0.58134
0.581339
0.581339
0.00100023
0.0287028
0.177552
0.504341
0.947921
1.38719
1.72662
1.93616
2.03745
2.06932
2.06581
2.04831
2.02424
1.99877
1.97391
1.95028
1.92813
1.90751
1.88846
1.87091
1.85488
1.84024
1.82698
1.81495
1.80413
1.79435
1.78561
1.77773
1.77073
1.76442
1.75886
1.75384
1.74945
1.74545
1.74201
1.73884
1.73614
1.73364
1.73154
1.72956
1.72792
1.72636
1.72506
1.72387
1.72279
1.72191
1.72097
1.72038
1.71949
1.7192
1.71833
1.71832
1.71753
1.71766
1.71692
1.71712
1.71646
1.71668
1.71611
1.71632
1.71585
1.71603
1.71565
1.71579
1.71549
1.7156
1.71537
1.71545
1.71527
1.71534
1.7152
1.71524
1.71514
1.71517
1.71509
1.71512
1.71505
1.71507
1.71503
1.71504
1.715
1.71501
1.71498
1.71499
1.71497
1.71497
1.71496
1.71496
1.71495
1.71495
1.71494
1.71494
1.71494
1.71494
1.71493
1.71493
1.71493
1.71493
1.71492
1.71493
0.00150341
0.0434221
0.276368
0.818393
1.59942
2.41371
3.07147
3.49644
3.71621
3.80011
3.81012
3.79162
3.75932
3.72308
3.68713
3.65282
3.62061
3.59058
3.56282
3.53723
3.51382
3.49244
3.47304
3.45543
3.43957
3.42524
3.41241
3.40085
3.39057
3.3813
3.37312
3.36572
3.35926
3.35338
3.3483
3.34364
3.33967
3.33598
3.33288
3.32996
3.32755
3.32525
3.32334
3.32157
3.32
3.31869
3.31731
3.31643
3.31512
3.31468
3.3134
3.31339
3.31221
3.31241
3.31131
3.31161
3.31063
3.31096
3.31013
3.31042
3.30974
3.30999
3.30944
3.30964
3.30921
3.30937
3.30903
3.30915
3.30889
3.30898
3.30877
3.30884
3.30869
3.30873
3.30862
3.30865
3.30856
3.30859
3.30852
3.30854
3.30849
3.3085
3.30846
3.30847
3.30844
3.30845
3.30842
3.30843
3.30841
3.30841
3.3084
3.3084
3.30839
3.30839
3.30838
3.30838
3.30838
3.30838
3.30837
3.30837
0.0018401
0.0532933
0.343886
1.04293
2.09308
3.2338
4.19035
4.83241
5.18278
5.33351
5.3731
5.36389
5.3357
5.29991
5.26338
5.22837
5.19555
5.16503
5.13687
5.11097
5.08732
5.06574
5.04619
5.02846
5.01251
4.9981
4.98521
4.9736
4.96328
4.95398
4.94578
4.93837
4.93188
4.92599
4.9209
4.91623
4.91225
4.90855
4.90546
4.90253
4.90011
4.89781
4.8959
4.89411
4.89256
4.89122
4.88986
4.88895
4.88765
4.8872
4.88591
4.88592
4.88473
4.88496
4.88383
4.88415
4.88316
4.88349
4.88266
4.88296
4.88227
4.88252
4.88198
4.88217
4.88174
4.88189
4.88156
4.88168
4.88142
4.8815
4.88131
4.88137
4.88122
4.88126
4.88115
4.88118
4.88109
4.88112
4.88105
4.88107
4.88102
4.88103
4.88099
4.881
4.88097
4.88097
4.88095
4.88096
4.88094
4.88094
4.88093
4.88093
4.88092
4.88092
4.88091
4.88091
4.88091
4.88091
4.8809
4.8809
0.00199745
0.0579118
0.376573
1.15819
2.36514
3.71642
4.88297
5.68858
6.1449
6.35591
6.42783
6.43301
6.41531
6.38691
6.35661
6.32752
6.30048
6.27559
6.25285
6.23213
6.21334
6.19633
6.18101
6.1672
6.15484
6.14372
6.13382
6.12493
6.11705
6.10997
6.10374
6.09812
6.09322
6.08877
6.08493
6.08142
6.07843
6.07564
6.07332
6.07112
6.06932
6.06759
6.06618
6.06482
6.06368
6.06266
6.06166
6.06097
6.06
6.05966
6.05868
6.05871
6.0578
6.058
6.05714
6.05739
6.05664
6.0569
6.05627
6.05649
6.05598
6.05616
6.05576
6.0559
6.05559
6.0557
6.05545
6.05553
6.05534
6.0554
6.05526
6.0553
6.05519
6.05523
6.05514
6.05517
6.0551
6.05512
6.05507
6.05508
6.05504
6.05505
6.05502
6.05503
6.05501
6.05501
6.055
6.055
6.05499
6.05499
6.05498
6.05498
6.05497
6.05497
6.05497
6.05497
6.05496
6.05496
6.05496
6.05496
0.00203445
0.0590059
0.385356
1.19476
2.46674
3.92494
5.21388
6.12431
6.65359
6.90892
7.00584
7.02504
7.01546
6.99452
6.9707
6.94787
6.92704
6.90829
6.8915
6.8765
6.86316
6.85128
6.84074
6.83139
6.82311
6.81577
6.80929
6.80353
6.79847
6.79396
6.79001
6.78648
6.78341
6.78064
6.77826
6.77609
6.77425
6.77254
6.77113
6.76978
6.76869
6.76763
6.76678
6.76595
6.76528
6.76465
6.76406
6.76363
6.76305
6.76285
6.76225
6.7623
6.76173
6.76187
6.76133
6.76149
6.76103
6.76118
6.7608
6.76094
6.76063
6.76074
6.7605
6.76058
6.76039
6.76045
6.76031
6.76036
6.76024
6.76028
6.76019
6.76022
6.76015
6.76017
6.76012
6.76014
6.7601
6.76011
6.76008
6.76008
6.76006
6.76007
6.76005
6.76005
6.76004
6.76004
6.76003
6.76004
6.76003
6.76003
6.76002
6.76002
6.76002
6.76002
6.76002
6.76002
6.76001
6.76001
6.76001
6.76001
0.00199855
0.0579568
0.380085
1.1869
2.47363
3.97256
5.32366
6.30038
6.87963
7.16622
7.28038
7.3088
7.30385
7.28709
7.26691
7.2478
7.23082
7.21601
7.20317
7.19205
7.18244
7.17412
7.16695
7.16073
7.15537
7.15071
7.14669
7.14319
7.14016
7.13751
7.13522
7.1332
7.13147
7.12993
7.12862
7.12743
7.12643
7.12551
7.12476
7.12404
7.12347
7.1229
7.12247
7.12203
7.12169
7.12135
7.12106
7.12084
7.12056
7.12047
7.12016
7.12021
7.11989
7.11997
7.11967
7.11975
7.11949
7.11957
7.11937
7.11944
7.11928
7.11933
7.11921
7.11925
7.11915
7.11918
7.11911
7.11913
7.11908
7.1191
7.11905
7.11906
7.11903
7.11904
7.11902
7.11902
7.119
7.11901