/*--------------------------------*- C++ -*----------------------------------*\
| =========                 |                                                 |
| \\      /  F ield         | foam-extend: Open Source CFD                    |
|  \\    /   O peration     | Version:     4.0                                |
|   \\  /    A nd           | Web:         http://www.foam-extend.org         |
|    \\/     M anipulation  |                                                 |
\*---------------------------------------------------------------------------*/
FoamFile
{
    version     2.0;
    format      ascii;
    class       volScalarField;
    location    "5e-05";
    object      nut;
}
// * * * * * * * * * * * * * * * * * * * * * * * * * * * * * * * * * * * * * //

dimensions      [0 2 -1 0 0 0 0];

internalField   nonuniform List<scalar> 
28770
(
4.94974e-10
6.83741e-11
7.30347e-11
1.0007e-10
1.26126e-10
1.44989e-10
1.56446e-10
1.62357e-10
1.64944e-10
1.65872e-10
1.66068e-10
1.66013e-10
1.65846e-10
1.65618e-10
1.65345e-10
1.65039e-10
1.64687e-10
1.64296e-10
1.63848e-10
1.63353e-10
1.62786e-10
1.62163e-10
1.61453e-10
1.60677e-10
1.59795e-10
1.58837e-10
1.57753e-10
1.56584e-10
1.55268e-10
1.53861e-10
1.5229e-10
1.50625e-10
1.48785e-10
1.46858e-10
1.44757e-10
1.42586e-10
1.4026e-10
1.37896e-10
1.35411e-10
1.32907e-10
1.30231e-10
1.27214e-10
1.23058e-10
1.16235e-10
1.04031e-10
8.37223e-11
5.54337e-11
2.57715e-11
5.95386e-12
3.99821e-13
1.77583e-08
9.33982e-09
1.22053e-08
1.69628e-08
2.1341e-08
2.45223e-08
2.64565e-08
2.74543e-08
2.78896e-08
2.80445e-08
2.80746e-08
2.80621e-08
2.80297e-08
2.7987e-08
2.79353e-08
2.78783e-08
2.78118e-08
2.7739e-08
2.76544e-08
2.75623e-08
2.74554e-08
2.73398e-08
2.72061e-08
2.70622e-08
2.68964e-08
2.67192e-08
2.65159e-08
2.63001e-08
2.6054e-08
2.57951e-08
2.55022e-08
2.5197e-08
2.48554e-08
2.45036e-08
2.41152e-08
2.37207e-08
2.32932e-08
2.28656e-08
2.24119e-08
2.19619e-08
2.14788e-08
2.09463e-08
2.02223e-08
1.90639e-08
1.70166e-08
1.36376e-08
8.93539e-09
3.96317e-09
6.54634e-10
6.36521e-12
1.96013e-07
1.64089e-07
2.32391e-07
3.19627e-07
3.98785e-07
4.56879e-07
4.92478e-07
5.10953e-07
5.19064e-07
5.21978e-07
5.22579e-07
5.22364e-07
5.21797e-07
5.21035e-07
5.20114e-07
5.19092e-07
5.17905e-07
5.16601e-07
5.1509e-07
5.13438e-07
5.11531e-07
5.09455e-07
5.07066e-07
5.04481e-07
5.01516e-07
4.98329e-07
4.94688e-07
4.90802e-07
4.86389e-07
4.81719e-07
4.76457e-07
4.70942e-07
4.64792e-07
4.58421e-07
4.51414e-07
4.44253e-07
4.36516e-07
4.28735e-07
4.20497e-07
4.12272e-07
4.0342e-07
3.93502e-07
3.7976e-07
3.57225e-07
3.16722e-07
2.48706e-07
1.52241e-07
5.29404e-08
4.68408e-09
3.01683e-11
1.28361e-06
1.19896e-06
1.59924e-06
2.09595e-06
2.55326e-06
2.89532e-06
3.10855e-06
3.22088e-06
3.27089e-06
3.28913e-06
3.29312e-06
3.29178e-06
3.28837e-06
3.28372e-06
3.27809e-06
3.27183e-06
3.26457e-06
3.25657e-06
3.24732e-06
3.23718e-06
3.22549e-06
3.21275e-06
3.1981e-06
3.18222e-06
3.16402e-06
3.14441e-06
3.12204e-06
3.09812e-06
3.07096e-06
3.04217e-06
3.00974e-06
2.97568e-06
2.93771e-06
2.89829e-06
2.85493e-06
2.81053e-06
2.76254e-06
2.71418e-06
2.6629e-06
2.61144e-06
2.55549e-06
2.491e-06
2.39765e-06
2.23702e-06
1.93872e-06
1.4315e-06
7.4827e-07
1.89421e-07
1.2316e-08
7.42938e-11
5.71266e-06
5.31528e-06
6.48949e-06
7.96603e-06
9.34292e-06
1.03922e-05
1.10607e-05
1.14209e-05
1.15848e-05
1.16457e-05
1.16597e-05
1.16549e-05
1.16435e-05
1.16277e-05
1.16086e-05
1.15872e-05
1.15625e-05
1.15351e-05
1.15036e-05
1.1469e-05
1.1429e-05
1.13855e-05
1.13354e-05
1.1281e-05
1.12187e-05
1.11515e-05
1.10748e-05
1.09926e-05
1.08993e-05
1.08002e-05
1.06885e-05
1.0571e-05
1.04399e-05
1.03035e-05
1.01533e-05
9.9991e-06
9.83226e-06
9.66363e-06
9.4843e-06
9.30263e-06
9.10055e-06
8.85396e-06
8.46734e-06
7.75477e-06
6.4099e-06
4.2561e-06
1.84004e-06
3.75319e-07
2.18716e-08
1.29962e-10
1.73425e-05
1.6506e-05
1.88357e-05
2.17041e-05
2.43873e-05
2.6455e-05
2.77971e-05
2.85375e-05
2.88828e-05
2.90144e-05
2.90454e-05
2.90343e-05
2.90074e-05
2.89717e-05
2.89279e-05
2.88789e-05
2.8822e-05
2.87591e-05
2.86865e-05
2.86067e-05
2.85147e-05
2.84141e-05
2.82984e-05
2.81726e-05
2.80284e-05
2.78723e-05
2.76943e-05
2.75028e-05
2.72855e-05
2.70536e-05
2.67923e-05
2.6516e-05
2.62075e-05
2.58851e-05
2.55294e-05
2.51627e-05
2.47648e-05
2.43605e-05
2.39276e-05
2.34808e-05
2.2961e-05
2.22623e-05
2.10428e-05
1.86644e-05
1.43458e-05
8.36839e-06
3.08185e-06
5.58701e-07
3.1211e-08
1.8441e-10
3.60152e-05
3.68378e-05
4.09085e-05
4.52774e-05
4.90357e-05
5.18942e-05
5.37597e-05
5.48064e-05
5.53066e-05
5.55024e-05
5.555e-05
5.5534e-05
5.54904e-05
5.54353e-05
5.5367e-05
5.52901e-05
5.52007e-05
5.51018e-05
5.49875e-05
5.48615e-05
5.47163e-05
5.45569e-05
5.43736e-05
5.41734e-05
5.39437e-05
5.36942e-05
5.34089e-05
5.31007e-05
5.27499e-05
5.23738e-05
5.19482e-05
5.14957e-05
5.0988e-05
5.04539e-05
4.98614e-05
4.92462e-05
4.85738e-05
4.78839e-05
4.71343e-05
4.63317e-05
4.53184e-05
4.37523e-05
4.06912e-05
3.45763e-05
2.43933e-05
1.26057e-05
4.15602e-06
7.08615e-07
3.8841e-08
2.28806e-10
5.40635e-05
5.99482e-05
6.6569e-05
7.26245e-05
7.71631e-05
8.02761e-05
8.22345e-05
8.33299e-05
8.38628e-05
8.4079e-05
8.41371e-05
8.41255e-05
8.40817e-05
8.40257e-05
8.39565e-05
8.38777e-05
8.37861e-05
8.36843e-05
8.35667e-05
8.34366e-05
8.32865e-05
8.31211e-05
8.29307e-05
8.27217e-05
8.24815e-05
8.22192e-05
8.19182e-05
8.15913e-05
8.12174e-05
8.08138e-05
8.03544e-05
7.98622e-05
7.93056e-05
7.8715e-05
7.80535e-05
7.73597e-05
7.65922e-05
7.57926e-05
7.48985e-05
7.38729e-05
7.23882e-05
6.96481e-05
6.37085e-05
5.18372e-05
3.38589e-05
1.59939e-05
4.93471e-06
8.1548e-07
4.42866e-08
2.60446e-10
6.5419e-05
7.64617e-05
8.56949e-05
9.31722e-05
9.85432e-05
0.000101725
0.000103576
0.000104582
0.000105075
0.000105284
0.00010535
0.000105353
0.000105328
0.00010529
0.000105244
0.00010519
0.000105128
0.000105059
0.000104978
0.00010489
0.000104787
0.000104673
0.000104543
0.000104399
0.000104233
0.000104051
0.000103842
0.000103613
0.000103351
0.000103066
0.00010274
0.000102389
0.000101989
0.000101561
0.000101077
0.000100565
9.99903e-05
9.93795e-05
9.86615e-05
9.77263e-05
9.60609e-05
9.23278e-05
8.34985e-05
6.5872e-05
4.08858e-05
1.83241e-05
5.46319e-06
8.8955e-07
4.80939e-08
2.8249e-10
7.07078e-05
8.47146e-05
9.56074e-05
0.000103994
0.000109866
0.0001132
0.000114985
0.000115925
0.000116386
0.00011659
0.000116665
0.000116683
0.000116675
0.000116658
0.000116636
0.00011661
0.00011658
0.000116546
0.000116506
0.000116463
0.000116412
0.000116357
0.000116293
0.000116222
0.000116141
0.000116053
0.000115951
0.000115839
0.000115712
0.000115573
0.000115415
0.000115245
0.00011505
0.000114844
0.000114609
0.000114362
0.000114082
0.000113777
0.00011338
0.000112721
0.00011115
0.000106955
9.63169e-05
7.48926e-05
4.53654e-05
1.98416e-05
5.82562e-06
9.42564e-07
5.08593e-08
2.98506e-10
7.27357e-05
8.79814e-05
9.96213e-05
0.00010844
0.000114526
0.000117979
0.00011975
0.000120665
0.000121115
0.000121318
0.000121398
0.000121425
0.000121429
0.000121424
0.000121416
0.000121406
0.000121394
0.000121382
0.000121367
0.00012135
0.000121332
0.000121311
0.000121288
0.000121262
0.000121233
0.000121202
0.000121167
0.000121129
0.000121087
0.000121043
0.000120993
0.000120943
0.000120887
0.000120831
0.00012077
0.000120712
0.000120647
0.000120573
0.000120432
0.000120028
0.000118675
0.000114467
0.00010324
8.01796e-05
4.83251e-05
2.09965e-05
6.13667e-06
9.91288e-07
5.3453e-08
3.1344e-10
7.34158e-05
8.90923e-05
0.000101004
0.000109986
0.000116168
0.000119673
0.000121442
0.000122346
0.00012279
0.000122992
0.000123075
0.000123105
0.000123114
0.000123115
0.000123113
0.00012311
0.000123107
0.000123103
0.000123099
0.000123095
0.00012309
0.000123085
0.00012308
0.000123075
0.000123069
0.000123065
0.00012306
0.000123056
0.000123054
0.000123054
0.000123056
0.000123063
0.000123074
0.000123095
0.000123122
0.000123163
0.000123214
0.000123269
0.000123281
0.000123052
0.00012192
0.000117928
0.000106864
8.35124e-05
5.06024e-05
2.20315e-05
6.44006e-06
1.04054e-06
5.61056e-08
3.28782e-10
7.36208e-05
8.94293e-05
0.000101426
0.000110463
0.000116688
0.00012022
0.000121985
0.00012288
0.000123319
0.000123519
0.000123603
0.000123635
0.000123645
0.000123648
0.000123648
0.000123648
0.000123648
0.000123648
0.000123647
0.000123648
0.000123648
0.000123649
0.00012365
0.000123653
0.000123656
0.000123661
0.000123668
0.000123678
0.00012369
0.000123708
0.000123731
0.000123762
0.000123801
0.000123854
0.00012392
0.000124007
0.000124112
0.000124235
0.000124331
0.00012422
0.000123315
0.000119675
0.000109212
8.63395e-05
5.29944e-05
2.32744e-05
6.8313e-06
1.10629e-06
5.96768e-08
3.49248e-10
7.3677e-05
8.9522e-05
0.000101544
0.000110599
0.000116843
0.0001204
0.000122159
0.000123043
0.000123476
0.000123674
0.000123757
0.000123789
0.0001238
0.000123803
0.000123805
0.000123805
0.000123806
0.000123807
0.000123808
0.000123809
0.000123811
0.000123814
0.000123818
0.000123823
0.000123829
0.000123837
0.000123848
0.000123862
0.000123881
0.000123905
0.000123935
0.000123976
0.000124027
0.000124094
0.000124178
0.000124289
0.000124423
0.000124588
0.000124745
0.000124745
0.000124064
0.000120876
0.000111293
8.93662e-05
5.58823e-05
2.48707e-05
7.34634e-06
1.19364e-06
6.43942e-08
3.75429e-10
7.36916e-05
8.95465e-05
0.000101576
0.000110639
0.000116892
0.000120484
0.000122232
0.000123101
0.000123528
0.000123724
0.000123806
0.000123837
0.000123848
0.000123852
0.000123853
0.000123854
0.000123855
0.000123856
0.000123858
0.000123859
0.000123862
0.000123865
0.00012387
0.000123875
0.000123882
0.000123892
0.000123904
0.00012392
0.00012394
0.000123967
0.000124001
0.000124045
0.000124101
0.000124176
0.00012427
0.000124396
0.000124551
0.000124756
0.000124954
0.000125076
0.000124674
0.000122156
0.000113789
9.34729e-05
6.02455e-05
2.75117e-05
8.26828e-06
1.36281e-06
7.37907e-08
3.99442e-10
7.36968e-05
8.95557e-05
0.00010159
0.000110658
0.000116918
0.000120551
0.000122289
0.000123142
0.000123561
0.000123754
0.000123836
0.000123867
0.000123878
0.000123881
0.000123883
0.000123884
0.000123884
0.000123886
0.000123887
0.000123889
0.000123892
0.000123895
0.000123899
0.000123905
0.000123913
0.000123922
0.000123935
0.000123951
0.000123972
0.000124
0.000124034
0.00012408
0.000124139
0.000124217
0.000124318
0.000124455
0.000124627
0.000124856
0.000125106
0.00012537
0.000125457
0.000123955
0.00011861
0.00010343
7.36399e-05
3.79539e-05
1.31594e-05
2.74078e-06
2.33915e-07
1.79338e-09
7.37017e-05
8.95649e-05
0.000101604
0.000110681
0.000116948
0.000120625
0.000122356
0.000123194
0.000123607
0.000123798
0.000123879
0.00012391
0.000123921
0.000123924
0.000123926
0.000123926
0.000123927
0.000123928
0.000123929
0.000123931
0.000123934
0.000123937
0.000123941
0.000123947
0.000123954
0.000123964
0.000123976
0.000123993
0.000124014
0.000124041
0.000124074
0.000124119
0.000124176
0.000124256
0.000124361
0.000124507
0.000124698
0.000124953
0.00012527
0.000125624
0.000125907
0.000125016
0.000121133
0.000108578
8.10114e-05
4.40616e-05
1.59557e-05
3.41457e-06
2.84458e-07
1.99781e-09
7.37093e-05
8.9579e-05
0.000101626
0.000110713
0.000116995
0.000120715
0.000122449
0.000123276
0.000123685
0.000123876
0.000123956
0.000123987
0.000123998
0.000124002
0.000124003
0.000124003
0.000124004
0.000124005
0.000124006
0.000124008
0.00012401
0.000124013
0.000124017
0.000124022
0.000124029
0.000124039
0.00012405
0.000124066
0.000124085
0.000124109
0.000124138
0.000124177
0.000124228
0.000124303
0.000124408
0.00012456
0.000124767
0.000125053
0.000125425
0.000125889
0.000126327
0.000126006
0.000123509
0.000113722
8.92453e-05
5.15669e-05
1.94618e-05
4.2282e-06
3.53711e-07
2.49062e-09
7.37203e-05
8.95996e-05
0.000101658
0.00011076
0.000117063
0.000120831
0.000122578
0.000123405
0.000123816
0.000124007
0.000124089
0.00012412
0.000124131
0.000124134
0.000124135
0.000124136
0.000124136
0.000124137
0.000124137
0.000124139
0.000124141
0.000124144
0.000124147
0.000124152
0.000124159
0.000124168
0.000124179
0.000124192
0.000124207
0.000124225
0.000124243
0.000124267
0.000124303
0.000124365
0.000124465
0.00012462
0.000124842
0.000125158
0.000125585
0.000126152
0.00012674
0.0001269
0.000125682
0.000118794
9.85449e-05
5.75571e-05
2.18941e-05
4.59686e-06
3.55775e-07
1.39743e-09
7.37349e-05
8.96266e-05
0.000101699
0.000110822
0.000117155
0.000120977
0.000122754
0.000123596
0.000124017
0.000124214
0.000124297
0.000124329
0.00012434
0.000124343
0.000124344
0.000124345
0.000124345
0.000124345
0.000124346
0.000124347
0.000124349
0.000124351
0.000124355
0.00012436
0.000124366
0.000124374
0.000124383
0.000124393
0.0001244
0.000124402
0.000124396
0.000124391
0.000124399
0.000124441
0.000124529
0.000124684
0.000124918
0.000125266
0.000125748
0.000126424
0.000127143
0.000127735
0.000127641
0.000123576
0.000108206
7.02256e-05
2.92247e-05
6.52732e-06
5.25448e-07
2.07394e-09
7.37521e-05
8.96586e-05
0.000101748
0.000110897
0.000117266
0.000121151
0.000122981
0.000123861
0.000124302
0.000124508
0.000124595
0.000124628
0.000124639
0.000124642
0.000124643
0.000124643
0.000124643
0.000124644
0.000124644
0.000124646
0.000124647
0.00012465
0.000124653
0.000124658
0.000124664
0.000124671
0.000124676
0.000124679
0.00012467
0.000124642
0.000124592
0.000124539
0.000124509
0.000124523
0.000124596
0.000124747
0.000124994
0.000125371
0.000125908
0.000126684
0.000127531
0.000128498
0.000129333
0.000127638
0.000107115
7.78842e-05
4.03464e-05
9.77642e-06
8.073e-07
3.2116e-09
7.37702e-05
8.96922e-05
0.0001018
0.000110976
0.000117389
0.000121341
0.000123251
0.000124188
0.000124659
0.000124877
0.000124967
0.000125001
0.000125012
0.000125016
0.000125017
0.000125017
0.000125017
0.000125018
0.000125019
0.00012502
0.000125022
0.000125025
0.000125029
0.000125034
0.000125039
0.000125044
0.000125044
0.000125032
0.000124992
0.000124908
0.000124793
0.000124686
0.000124615
0.0001246
0.000124657
0.000124805
0.000125064
0.000125469
0.00012606
0.000126926
0.000127884
0.000129179
0.000130681
0.000117978
9.6953e-05
6.81129e-05
4.68984e-05
1.59948e-05
1.42031e-06
5.81561e-09
7.37871e-05
8.97238e-05
0.000101849
0.000111053
0.000117507
0.000121528
0.000123535
0.000124542
0.000125044
0.000125273
0.000125366
0.000125401
0.000125412
0.000125416
0.000125417
0.000125417
0.000125418
0.000125419
0.00012542
0.000125422
0.000125424
0.000125427
0.000125431
0.000125437
0.000125441
0.000125443
0.000125432
0.000125393
0.000125297
0.000125141
0.000124965
0.00012481
0.000124703
0.000124663
0.000124708
0.000124853
0.000125124
0.000125551
0.000126194
0.000127132
0.000128186
0.000129752
0.000130517
0.000107616
8.74457e-05
6.13699e-05
4.23896e-05
2.76874e-05
2.56507e-06
3.44034e-08
7.38009e-05
8.97496e-05
0.00010189
0.000111116
0.000117607
0.000121687
0.000123794
0.000124866
0.000125395
0.000125632
0.000125727
0.000125762
0.000125773
0.000125777
0.000125778
0.000125779
0.00012578
0.000125781
0.000125782
0.000125785
0.000125787
0.000125791
0.000125796
0.000125801
0.000125804
0.000125799
0.00012577
0.000125683
0.000125522
0.000125309
0.000125089
0.000124898
0.000124766
0.000124709
0.000124746
0.00012489
0.000125171
0.000125615
0.000126299
0.00012729
0.000128413
0.00013019
0.000121529
9.86406e-05
7.87825e-05
5.71899e-05
4.05096e-05
2.49357e-05
8.25887e-06
1.69135e-07
7.38101e-05
8.97668e-05
0.000101917
0.000111158
0.000117676
0.000121799
0.000123987
0.00012511
0.000125657
0.000125899
0.000125995
0.000126029
0.000126041
0.000126044
0.000126046
0.000126047
0.000126048
0.000126049
0.000126051
0.000126054
0.000126057
0.000126061
0.000126066
0.000126071
0.000126072
0.000126057
0.000125997
0.000125864
0.000125661
0.000125413
0.000125164
0.000124951
0.000124803
0.000124736
0.000124769
0.000124912
0.0001252
0.000125655
0.000126367
0.000127389
0.000128553
0.000130483
0.000115017
9.21234e-05
7.23764e-05
5.43e-05
3.89365e-05
2.56205e-05
1.48139e-05
4.06809e-06
7.38134e-05
8.97729e-05
0.000101927
0.000111174
0.000117701
0.00012184
0.00012407
0.000125216
0.00012577
0.000126013
0.000126108
0.000126143
0.000126154
0.000126158
0.000126159
0.00012616
0.000126161
0.000126163
0.000126165
0.000126167
0.000126171
0.000126175
0.00012618
0.000126185
0.000126184
0.000126158
0.000126077
0.000125927
0.000125711
0.000125451
0.000125191
0.00012497
0.000124816
0.000124745
0.000124776
0.00012492
0.000125211
0.000125669
0.000126391
0.000127423
0.000128586
0.000130613
0.000111801
8.89782e-05
6.92665e-05
5.27488e-05
3.82844e-05
2.62724e-05
1.66552e-05
1.23845e-05
7.38101e-05
8.97668e-05
0.000101917
0.000111158
0.000117676
0.000121799
0.000123987
0.00012511
0.000125657
0.000125899
0.000125995
0.000126029
0.000126041
0.000126044
0.000126046
0.000126047
0.000126048
0.000126049
0.000126051
0.000126054
0.000126057
0.000126061
0.000126066
0.000126071
0.000126072
0.000126057
0.000125997
0.000125866
0.000125663
0.000125416
0.000125165
0.000124952
0.000124803
0.000124736
0.000124768
0.000124912
0.0001252
0.000125655
0.000126367
0.000127389
0.000128509
0.000130571
0.000112439
8.97918e-05
7.01785e-05
5.28658e-05
3.82311e-05
2.5707e-05
1.40691e-05
5.22599e-06
7.38009e-05
8.97496e-05
0.00010189
0.000111116
0.000117607
0.000121687
0.000123794
0.000124866
0.000125395
0.000125632
0.000125727
0.000125762
0.000125773
0.000125777
0.000125778
0.000125779
0.00012578
0.000125781
0.000125782
0.000125785
0.000125787
0.000125791
0.000125796
0.000125801
0.000125804
0.0001258
0.000125771
0.000125689
0.000125529
0.000125314
0.000125091
0.000124899
0.000124766
0.000124709
0.000124746
0.000124889
0.000125171
0.000125615
0.000126299
0.00012729
0.000128329
0.000130356
0.00011687
9.43941e-05
7.4792e-05
5.52539e-05
3.9209e-05
2.44302e-05
1.17253e-05
2.27404e-07
7.37871e-05
8.97238e-05
0.000101849
0.000111053
0.000117507
0.000121528
0.000123535
0.000124542
0.000125044
0.000125273
0.000125366
0.000125401
0.000125412
0.000125416
0.000125417
0.000125417
0.000125418
0.000125419
0.00012542
0.000125422
0.000125424
0.000125427
0.000125431
0.000125437
0.000125441
0.000125443
0.000125433
0.000125395
0.000125299
0.000125143
0.000124966
0.00012481
0.000124703
0.000124663
0.000124708
0.000124853
0.000125124
0.000125551
0.000126194
0.000127132
0.000128065
0.000129991
0.000124364
0.000102005
8.22966e-05
6.04566e-05
4.22527e-05
2.39923e-05
4.87211e-06
4.03285e-08
7.37702e-05
8.96922e-05
0.0001018
0.000110976
0.000117389
0.000121341
0.000123251
0.000124188
0.000124659
0.000124877
0.000124967
0.000125001
0.000125012
0.000125016
0.000125017
0.000125017
0.000125017
0.000125018
0.000125019
0.00012502
0.000125022
0.000125025
0.000125029
0.000125034
0.000125039
0.000125044
0.000125044
0.000125033
0.000124993
0.000124908
0.000124793
0.000124686
0.000124615
0.0001246
0.000124657
0.000124805
0.000125064
0.000125468
0.00012606
0.000126926
0.000127737
0.00012948
0.000131214
0.000111658
9.12602e-05
6.83645e-05
4.88744e-05
1.83433e-05
1.68927e-06
7.17836e-09
7.37521e-05
8.96586e-05
0.000101748
0.000110897
0.000117266
0.000121151
0.000122981
0.000123861
0.000124302
0.000124508
0.000124595
0.000124628
0.000124639
0.000124642
0.000124643
0.000124643
0.000124643
0.000124644
0.000124644
0.000124646
0.000124647
0.00012465
0.000124653
0.000124658
0.000124664
0.000124671
0.000124677
0.000124679
0.00012467
0.000124643
0.000124592
0.000124539
0.000124509
0.000124523
0.000124595
0.000124746
0.000124994
0.000125371
0.000125908
0.000126684
0.00012736
0.00012885
0.000130056
0.000122473
0.000100686
7.61762e-05
4.38593e-05
1.09297e-05
9.11107e-07
3.63505e-09
7.37349e-05
8.96266e-05
0.000101699
0.000110822
0.000117155
0.000120977
0.000122754
0.000123596
0.000124017
0.000124214
0.000124297
0.000124329
0.00012434
0.000124343
0.000124344
0.000124345
0.000124345
0.000124345
0.000124346
0.000124347
0.000124349
0.000124351
0.000124355
0.00012436
0.000124366
0.000124374
0.000124383
0.000124393
0.0001244
0.000124402
0.000124396
0.000124391
0.000124399
0.000124441
0.000124529
0.000124683
0.000124918
0.000125266
0.000125748
0.000126424
0.000126964
0.000128122
0.000128523
0.000125724
0.000110716
7.37658e-05
3.15715e-05
7.16685e-06
5.79333e-07
2.28862e-09
7.37203e-05
8.95996e-05
0.000101658
0.00011076
0.000117063
0.000120831
0.000122578
0.000123405
0.000123816
0.000124007
0.000124089
0.00012412
0.000124131
0.000124134
0.000124135
0.000124136
0.000124136
0.000124137
0.000124137
0.000124139
0.000124141
0.000124144
0.000124147
0.000124152
0.000124159
0.000124168
0.000124179
0.000124192
0.000124207
0.000124225
0.000124243
0.000124267
0.000124303
0.000124365
0.000124465
0.00012462
0.000124842
0.000125158
0.000125584
0.000126152
0.000126546
0.000127322
0.000126687
0.000121258
0.000103389
6.04424e-05
2.34398e-05
4.99565e-06
3.93008e-07
1.55121e-09
7.37093e-05
8.9579e-05
0.000101626
0.000110713
0.000116995
0.000120715
0.000122449
0.000123276
0.000123685
0.000123876
0.000123956
0.000123987
0.000123998
0.000124002
0.000124003
0.000124003
0.000124004
0.000124005
0.000124006
0.000124008
0.00012401
0.000124013
0.000124017
0.000124022
0.000124029
0.000124039
0.00012405
0.000124066
0.000124085
0.000124109
0.000124138
0.000124177
0.000124228
0.000124303
0.000124408
0.00012456
0.000124767
0.000125053
0.000125425
0.000125889
0.000126141
0.000126454
0.000124619
0.000116272
9.37752e-05
5.61938e-05
2.1831e-05
4.82395e-06
4.11386e-07
2.92433e-09
7.37017e-05
8.95649e-05
0.000101604
0.000110681
0.000116948
0.000120625
0.000122356
0.000123194
0.000123607
0.000123798
0.000123879
0.00012391
0.000123921
0.000123924
0.000123926
0.000123926
0.000123927
0.000123928
0.000123929
0.000123931
0.000123934
0.000123937
0.000123941
0.000123947
0.000123954
0.000123964
0.000123976
0.000123993
0.000124013
0.000124041
0.000124074
0.000124119
0.000124176
0.000124256
0.000124361
0.000124507
0.000124697
0.000124953
0.00012527
0.000125623
0.000125698
0.000125515
0.000122341
0.000111152
8.50143e-05
4.76108e-05
1.7592e-05
3.79208e-06
3.16006e-07
2.22199e-09
7.36968e-05
8.95557e-05
0.00010159
0.000110658
0.000116918
0.000120551
0.000122289
0.000123142
0.000123561
0.000123754
0.000123836
0.000123867
0.000123878
0.000123881
0.000123883
0.000123884
0.000123884
0.000123886
0.000123887
0.000123889
0.000123892
0.000123895
0.000123899
0.000123905
0.000123912
0.000123922
0.000123935
0.000123951
0.000123972
0.000124
0.000124034
0.00012408
0.000124139
0.000124217
0.000124318
0.000124455
0.000124627
0.000124855
0.000125106
0.00012537
0.000125241
0.00012449
0.000119893
0.00010603
7.72927e-05
4.09502e-05
1.45516e-05
3.08927e-06
2.58803e-07
1.83444e-09
7.36916e-05
8.95465e-05
0.000101576
0.000110639
0.000116892
0.000120484
0.000122232
0.000123101
0.000123528
0.000123724
0.000123806
0.000123837
0.000123848
0.000123852
0.000123853
0.000123854
0.000123855
0.000123856
0.000123858
0.000123859
0.000123862
0.000123865
0.00012387
0.000123875
0.000123882
0.000123892
0.000123904
0.00012392
0.00012394
0.000123967
0.000124001
0.000124045
0.000124101
0.000124176
0.00012427
0.000124396
0.000124551
0.000124756
0.000124954
0.000125076
0.000124674
0.000122155
0.000113789
9.34727e-05
6.02455e-05
2.75117e-05
8.26828e-06
1.36281e-06
7.37906e-08
3.99441e-10
7.3677e-05
8.9522e-05
0.000101544
0.000110599
0.000116843
0.0001204
0.000122159
0.000123043
0.000123476
0.000123674
0.000123757
0.000123789
0.0001238
0.000123803
0.000123805
0.000123805
0.000123806
0.000123807
0.000123808
0.000123809
0.000123811
0.000123814
0.000123818
0.000123823
0.000123829
0.000123837
0.000123848
0.000123862
0.000123881
0.000123905
0.000123935
0.000123976
0.000124027
0.000124094
0.000124178
0.000124289
0.000124423
0.000124588
0.000124745
0.000124745
0.000124064
0.000120876
0.000111293
8.9366e-05
5.58823e-05
2.48707e-05
7.34634e-06
1.19364e-06
6.43942e-08
3.75428e-10
7.36208e-05
8.94293e-05
0.000101426
0.000110463
0.000116688
0.00012022
0.000121985
0.00012288
0.000123319
0.000123519
0.000123603
0.000123635
0.000123645
0.000123648
0.000123648
0.000123648
0.000123648
0.000123648
0.000123647
0.000123648
0.000123648
0.000123649
0.00012365
0.000123653
0.000123656
0.000123661
0.000123668
0.000123678
0.00012369
0.000123708
0.000123731
0.000123762
0.000123801
0.000123854
0.00012392
0.000124007
0.000124112
0.000124235
0.000124331
0.00012422
0.000123315
0.000119675
0.000109212
8.63394e-05
5.29944e-05
2.32744e-05
6.8313e-06
1.10629e-06
5.96768e-08
3.49247e-10
7.34158e-05
8.90922e-05
0.000101004
0.000109986
0.000116168
0.000119673
0.000121442
0.000122346
0.00012279
0.000122992
0.000123075
0.000123105
0.000123114
0.000123115
0.000123113
0.00012311
0.000123107
0.000123103
0.000123099
0.000123095
0.00012309
0.000123085
0.00012308
0.000123075
0.000123069
0.000123065
0.00012306
0.000123056
0.000123054
0.000123054
0.000123056
0.000123063
0.000123074
0.000123095
0.000123122
0.000123163
0.000123214
0.000123269
0.000123281
0.000123052
0.00012192
0.000117928
0.000106864
8.35124e-05
5.06023e-05
2.20315e-05
6.44006e-06
1.04054e-06
5.61056e-08
3.28781e-10
7.27356e-05
8.79813e-05
9.96213e-05
0.00010844
0.000114526
0.000117979
0.00011975
0.000120665
0.000121115
0.000121318
0.000121398
0.000121425
0.000121429
0.000121424
0.000121416
0.000121406
0.000121395
0.000121382
0.000121367
0.00012135
0.000121332
0.000121311
0.000121288
0.000121262
0.000121233
0.000121202
0.000121167
0.00012113
0.000121087
0.000121043
0.000120994
0.000120943
0.000120887
0.000120831
0.000120771
0.000120712
0.000120647
0.000120573
0.000120432
0.000120028
0.000118675
0.000114467
0.00010324
8.01796e-05
4.83251e-05
2.09965e-05
6.13667e-06
9.91288e-07
5.34529e-08
3.13439e-10
7.07077e-05
8.47145e-05
9.56074e-05
0.000103994
0.000109866
0.0001132
0.000114985
0.000115925
0.000116387
0.00011659
0.000116665
0.000116683
0.000116676
0.000116658
0.000116636
0.00011661
0.00011658
0.000116546
0.000116506
0.000116463
0.000116413
0.000116357
0.000116293
0.000116223
0.000116142
0.000116053
0.000115951
0.000115839
0.000115712
0.000115573
0.000115415
0.000115245
0.000115051
0.000114844
0.000114609
0.000114362
0.000114082
0.000113777
0.00011338
0.000112721
0.000111151
0.000106955
9.63169e-05
7.48926e-05
4.53654e-05
1.98416e-05
5.82562e-06
9.42563e-07
5.08592e-08
2.98506e-10
6.54189e-05
7.64617e-05
8.56949e-05
9.31723e-05
9.85433e-05
0.000101725
0.000103577
0.000104582
0.000105075
0.000105284
0.000105351
0.000105354
0.000105328
0.00010529
0.000105244
0.00010519
0.000105128
0.000105059
0.000104979
0.00010489
0.000104787
0.000104674
0.000104543
0.000104399
0.000104233
0.000104051
0.000103842
0.000103613
0.000103351
0.000103066
0.000102741
0.000102389
0.000101989
0.000101561
0.000101077
0.000100565
9.99905e-05
9.93797e-05
9.86617e-05
9.77265e-05
9.6061e-05
9.2328e-05
8.34986e-05
6.58721e-05
4.08858e-05
1.83241e-05
5.46319e-06
8.8955e-07
4.80939e-08
2.8249e-10
5.40635e-05
5.99481e-05
6.6569e-05
7.26246e-05
7.71632e-05
8.02763e-05
8.22347e-05
8.33302e-05
8.3863e-05
8.40792e-05
8.41373e-05
8.41257e-05
8.40819e-05
8.40259e-05
8.39567e-05
8.3878e-05
8.37864e-05
8.36846e-05
8.35669e-05
8.34368e-05
8.32867e-05
8.31213e-05
8.29309e-05
8.2722e-05
8.24817e-05
8.22194e-05
8.19185e-05
8.15915e-05
8.12176e-05
8.0814e-05
8.03546e-05
7.98624e-05
7.93058e-05
7.87152e-05
7.80537e-05
7.73599e-05
7.65924e-05
7.57928e-05
7.48987e-05
7.38731e-05
7.23883e-05
6.96483e-05
6.37087e-05
5.18372e-05
3.38589e-05
1.59939e-05
4.93471e-06
8.15479e-07
4.42866e-08
2.60446e-10
3.60152e-05
3.68378e-05
4.09085e-05
4.52774e-05
4.90358e-05
5.18943e-05
5.37598e-05
5.48066e-05
5.53067e-05
5.55025e-05
5.55501e-05
5.55341e-05
5.54905e-05
5.54354e-05
5.53671e-05
5.52902e-05
5.52009e-05
5.51019e-05
5.49876e-05
5.48616e-05
5.47164e-05
5.4557e-05
5.43737e-05
5.41735e-05
5.39438e-05
5.36943e-05
5.3409e-05
5.31008e-05
5.275e-05
5.23739e-05
5.19483e-05
5.14958e-05
5.0988e-05
5.0454e-05
4.98615e-05
4.92463e-05
4.85738e-05
4.7884e-05
4.71344e-05
4.63317e-05
4.53185e-05
4.37523e-05
4.06913e-05
3.45763e-05
2.43934e-05
1.26058e-05
4.15602e-06
7.08615e-07
3.8841e-08
2.28806e-10
1.73425e-05
1.6506e-05
1.88357e-05
2.17041e-05
2.43873e-05
2.6455e-05
2.77972e-05
2.85375e-05
2.88829e-05
2.90145e-05
2.90454e-05
2.90343e-05
2.90074e-05
2.89717e-05
2.89279e-05
2.88789e-05
2.8822e-05
2.87591e-05
2.86865e-05
2.86067e-05
2.85147e-05
2.84141e-05
2.82985e-05
2.81726e-05
2.80284e-05
2.78723e-05
2.76943e-05
2.75028e-05
2.72855e-05
2.70537e-05
2.67923e-05
2.65161e-05
2.62075e-05
2.58851e-05
2.55294e-05
2.51627e-05
2.47648e-05
2.43605e-05
2.39277e-05
2.34808e-05
2.2961e-05
2.22623e-05
2.10428e-05
1.86644e-05
1.43458e-05
8.36839e-06
3.08185e-06
5.58701e-07
3.1211e-08
1.8441e-10
5.71266e-06
5.31528e-06
6.48949e-06
7.96603e-06
9.34292e-06
1.03922e-05
1.10607e-05
1.14209e-05
1.15848e-05
1.16457e-05
1.16597e-05
1.16549e-05
1.16435e-05
1.16277e-05
1.16086e-05
1.15872e-05
1.15625e-05
1.15351e-05
1.15036e-05
1.1469e-05
1.1429e-05
1.13855e-05
1.13354e-05
1.1281e-05
1.12187e-05
1.11515e-05
1.10748e-05
1.09926e-05
1.08993e-05
1.08002e-05
1.06885e-05
1.0571e-05
1.04399e-05
1.03035e-05
1.01533e-05
9.9991e-06
9.83226e-06
9.66363e-06
9.4843e-06
9.30263e-06
9.10055e-06
8.85396e-06
8.46734e-06
7.75477e-06
6.4099e-06
4.2561e-06
1.84004e-06
3.75319e-07
2.18716e-08
1.29962e-10
1.28361e-06
1.19896e-06
1.59924e-06
2.09595e-06
2.55327e-06
2.89532e-06
3.10855e-06
3.22088e-06
3.27089e-06
3.28913e-06
3.29311e-06
3.29178e-06
3.28837e-06
3.28372e-06
3.27809e-06
3.27183e-06
3.26457e-06
3.25657e-06
3.24732e-06
3.23718e-06
3.22549e-06
3.21275e-06
3.1981e-06
3.18222e-06
3.16401e-06
3.14441e-06
3.12204e-06
3.09812e-06
3.07096e-06
3.04217e-06
3.00974e-06
2.97568e-06
2.93771e-06
2.89829e-06
2.85493e-06
2.81053e-06
2.76254e-06
2.71418e-06
2.6629e-06
2.61144e-06
2.55549e-06
2.491e-06
2.39765e-06
2.23702e-06
1.93872e-06
1.4315e-06
7.4827e-07
1.89421e-07
1.2316e-08
7.4294e-11
1.96012e-07
1.64089e-07
2.32391e-07
3.19627e-07
3.98785e-07
4.5688e-07
4.92479e-07
5.10953e-07
5.19064e-07
5.21978e-07
5.22579e-07
5.22364e-07
5.21797e-07
5.21035e-07
5.20114e-07
5.19092e-07
5.17905e-07
5.16601e-07
5.1509e-07
5.13439e-07
5.11531e-07
5.09456e-07
5.07066e-07
5.04482e-07
5.01516e-07
4.98329e-07
4.94688e-07
4.90802e-07
4.86389e-07
4.81719e-07
4.76457e-07
4.70942e-07
4.64792e-07
4.58421e-07
4.51414e-07
4.44253e-07
4.36516e-07
4.28736e-07
4.20497e-07
4.12272e-07
4.0342e-07
3.93502e-07
3.7976e-07
3.57225e-07
3.16722e-07
2.48706e-07
1.52241e-07
5.29405e-08
4.6841e-09
3.01685e-11
1.77583e-08