/*--------------------------------*- C++ -*----------------------------------*\
| =========                 |                                                 |
| \\      /  F ield         | foam-extend: Open Source CFD                    |
|  \\    /   O peration     | Version:     4.0                                |
|   \\  /    A nd           | Web:         http://www.foam-extend.org         |
|    \\/     M anipulation  |                                                 |
\*---------------------------------------------------------------------------*/
FoamFile
{
    version     2.0;
    format      ascii;
    class       volScalarField;
    location    "5e-05";
    object      omega;
}
// * * * * * * * * * * * * * * * * * * * * * * * * * * * * * * * * * * * * * //

dimensions      [0 0 -1 0 0 0 0];

internalField   nonuniform List<scalar> 
28770
(
1.87595e+07
1.87595e+07
1.87595e+07
1.87595e+07
1.87595e+07
1.87595e+07
1.87595e+07
1.87595e+07
1.87595e+07
1.87595e+07
1.87595e+07
1.87595e+07
1.87595e+07
1.87595e+07
1.87595e+07
1.87595e+07
1.87595e+07
1.87595e+07
1.87595e+07
1.87595e+07
1.87595e+07
1.87595e+07
1.87595e+07
1.87595e+07
1.87595e+07
1.87595e+07
1.87595e+07
1.87595e+07
1.87595e+07
1.87595e+07
1.87595e+07
1.87595e+07
1.87595e+07
1.87595e+07
1.87595e+07
1.87595e+07
1.87595e+07
1.87595e+07
1.87595e+07
1.87595e+07
1.87595e+07
1.87595e+07
1.87595e+07
1.87595e+07
1.87595e+07
1.87595e+07
1.87595e+07
1.87595e+07
1.87595e+07
1.87595e+07
2.45203e+06
3.14928e+06
3.22515e+06
3.23478e+06
3.23649e+06
3.23698e+06
3.23725e+06
3.23746e+06
3.23771e+06
3.23796e+06
3.23829e+06
3.23862e+06
3.23905e+06
3.23948e+06
3.24004e+06
3.2406e+06
3.24131e+06
3.24203e+06
3.24294e+06
3.24384e+06
3.245e+06
3.24613e+06
3.2476e+06
3.249e+06
3.25083e+06
3.25256e+06
3.25482e+06
3.25694e+06
3.2597e+06
3.26226e+06
3.26557e+06
3.26863e+06
3.27253e+06
3.27609e+06
3.28058e+06
3.28463e+06
3.28963e+06
3.2941e+06
3.29945e+06
3.30419e+06
3.30962e+06
3.31436e+06
3.31953e+06
3.32398e+06
3.32879e+06
3.33417e+06
3.34916e+06
3.45056e+06
4.48376e+06
1.79872e+07
505006
937838
1.05712e+06
1.08805e+06
1.09668e+06
1.09936e+06
1.1003e+06
1.10067e+06
1.10088e+06
1.10103e+06
1.10119e+06
1.10135e+06
1.10155e+06
1.10177e+06
1.10203e+06
1.10231e+06
1.10264e+06
1.103e+06
1.10343e+06
1.10388e+06
1.10442e+06
1.10499e+06
1.10567e+06
1.10638e+06
1.10724e+06
1.10812e+06
1.10918e+06
1.11026e+06
1.11156e+06
1.11287e+06
1.11444e+06
1.11601e+06
1.11787e+06
1.11971e+06
1.12186e+06
1.12396e+06
1.12638e+06
1.12871e+06
1.13133e+06
1.13381e+06
1.13651e+06
1.13906e+06
1.14186e+06
1.145e+06
1.15032e+06
1.16464e+06
1.22294e+06
1.51518e+06
3.23505e+06
1.79872e+07
131317
341771
446039
488769
505443
511914
514428
515407
515817
516024
516179
516324
516488
516667
516879
517111
517385
517681
518032
518409
518854
519331
519892
520491
521193
521939
522812
523732
524804
525926
527227
528576
530127
531720
533529
535364
537415
539466
541708
543920
546308
548779
551905
556890
568349
601627
714355
1.14279e+06
3.09504e+06
1.79872e+07
42918.9
137723
206856
246057
265698
274854
278888
280575
281267
281570
281744
281882
282026
282182
282365
282567
282803
283062
283365
283695
284081
284500
284988
285516
286129
286789
287554
288374
289319
290326
291481
292701
294090
295543
297181
298874
300752
302668
304754
306871
309217
311935
316058
324211
344198
398039
553674
1.05241e+06
3.07367e+06
1.79872e+07
18101.2
61930.3
102356
131486
149204
158811
163549
165692
166600
166979
167165
167287
167402
167524
167664
167820
168001
168202
168435
168692
168991
169318
169697
170110
170589
171110
171711
172362
173111
173918
174842
175829
176954
178145
179489
180898
182464
184087
185866
187727
189899
192776
197932
209383
237583
308457
492357
1.02483e+06
3.06834e+06
1.79872e+07
10175.2
33344.9
57198.3
77100.8
91298.5
99993.7
104706
106990
107996
108412
108594
108694
108775
108855
108946
109048
109166
109297
109449
109618
109813
110029
110278
110552
110870
111217
111619
112057
112562
113111
113741
114422
115201
116035
116981
117986
119112
120296
121615
123051
124871
127686
133522
147462
181747
264239
464823
1.0134e+06
3.06526e+06
1.79872e+07
7424.54
22546.2
38721.5
53073.4
64276.3
71847.8
76257.2
78509.8
79533.4
79957.1
80128.6
80207.1
80258.7
80304.8
80355.5
80411.7
80477
80549.7
80634.3
80728.2
80837.2
80957.8
81097.9
81252.5
81431.9
81629.5
81858.6
82110.3
82402
82721.3
83090.5
83492.9
83956.6
84459.1
85034.4
85652.9
86354.7
87105
87963.2
88954
90370.2
92973.3
99071.8
114409
152252
241398
450914
1.00727e+06
3.06294e+06
1.79872e+07
6437.27
18517.6
31465.7
43271.6
52722.2
59510.8
63650.3
65836.1
66850
67270.3
67432.5
67496.6
67529.3
67553.6
67578.4
67605.4
67636.9
67672
67712.9
67758.5
67811.6
67870.6
67939.3
68015.6
68104.6
68203.2
68318.2
68445.6
68594.2
68758.6
68950.2
69161.6
69407.6
69677.9
69991.2
70333.3
70727.7
71159.2
71673
72322.2
73408.2
75767.4
81836.3
97662
136990
229074
442551
1.00227e+06
3.05981e+06
1.79872e+07
6088.08
17060
28753
39521.4
48210.2
54564.6
58560
60703.7
61707.8
62124.4
62281.1
62337.3
62360
62372.7
62383.9
62395.6
62409.1
62424.2
62441.9
62461.8
62485.1
62511.1
62541.6
62575.9
62616
62661.1
62714.1
62773.6
62843.7
62922.6
63015.7
63120.3
63243.7
63382.3
63545.6
63728.1
63943.3
64186.6
64494.1
64932.8
65799.7
67953.8
73852.9
89621.2
129164
221996
436800
997988
3.0569e+06
1.79872e+07
5970.44
16560.4
27803.6
38188.3
46588.8
52750.9
56684.9
58812.7
59813.5
60228.8
60383.1
60435.9
60454
60461.5
60466.5
60471.3
60476.7
60482.7
60489.9
60498.1
60507.7
60518.7
60531.8
60546.6
60564.3
60584.6
60608.9
60636.8
60670.3
60709
60755.5
60809.6
60874.4
60950
61040.6
61145.8
61272.9
61423.5
61627.5
61955.1
62694.2
64683.5
70330.9
85688
124616
216783
431225
992542
3.05229e+06
1.79872e+07
5933.26
16400.5
27496.2
37752.8
46045.5
52134.5
56048.5
58174.7
59177
59593
59746.9
59798.5
59814.8
59820.2
59822.9
59824.9
59827.1
59829.6
59832.6
59836.1
59840.4
59845.4
59851.4
59858.6
59867.3
59877.7
59890.4
59905.7
59924.3
59947
59974.7
60008.4
60049.7
60100.1
60161.7
60236.7
60329.2
60444.4
60607.5
60886.9
61553.2
63408.1
68768.6
83535.5
121435
212273
425691
986969
3.04803e+06
1.79872e+07
5922.1
16352.6
27404.2
37622.1
45874.3
51933.1
55842.7
57973.3
58979.4
59397.2
59551.5
59602.9
59618.7
59623.4
59625.2
59626.3
59627.3
59628.6
59630.2
59632.1
59634.4
59637.4
59641
59645.5
59651
59658
59666.7
59677.6
59691.2
59708.4
59729.8
59757
59790.5
59833.3
59885.9
59952.9
60035.5
60142.6
60293.4
60552.1
61179.3
62905.7
67915.8
81884.2
118272
206920
418190
978391
3.04038e+06
1.79872e+07
5918.64
16338.6
27377.8
37584.8
45822
51860.5
55771
57909.2
58920
59340
59495.1
59546.7
59562.3
59566.9
59568.4
59569.2
59569.9
59570.8
59571.9
59573.4
59575.1
59577.4
59580.3
59584
59588.7
59594.7
59602.2
59612.1
59624.3
59640.3
59660.2
59686.3
59718.8
59761.2
59813.7
59882.5
59968.2
60083.1
60241.6
60504.4
61093.2
62673.5
67275.5
80262.7
114708
200361
408350
966366
3.0291e+06
1.79872e+07
5917.14
16333.5
27368.9
37572.5
45805.8
51821.2
55734
57882.9
58898.9
59321.1
59477.2
59529
59544.7
59549.3
59550.7
59551.5
59552.1
59552.9
59553.9
59555.2
59556.9
59559.1
59561.8
59565.4
59569.9
59575.8
59583.2
59593
59605.2
59621.5
59641.9
59669.1
59702.9
59748.1
59803.9
59879
59970.3
60098.3
60257
60525.8
61088.9
62496.6
66530
78099.5
109486
189539
388409
930354
2.95546e+06
1.79872e+07
5916
16330.3
27363.4
37565
45797.9
51787.9
55702.5
57862.9
58884.4
59308.9
59465.8
59518
59533.8
59538.4
59539.8
59540.6
59541.2
59542.1
59543.1
59544.4
59546.1
59548.3
59551
59554.7
59559.3
59565.4
59573
59583.1
59595.9
59613.1
59634.7
59663.8
59700.4
59749.1
59809.6
59890.6
59990.5
60127.8
60298.1
60573.7
60937.6
61884.6
64604.8
72538.2
94801.7
153350
299070
671907
1.908e+06
1.2256e+07
5914.8
16326.9
27357.5
37556.5
45788.5
51753.3
55667.3
57838.2
58864.8
59291.4
59449.1
59501.5
59517.5
59522.1
59523.6
59524.4
59525.1
59526
59527
59528.4
59530.2
59532.5
59535.4
59539.2
59544
59550.4
59558.4
59569.2
59582.9
59601.5
59625.4
59657.6
59698.3
59752.5
59820.1
59909.6
60022.2
60172.8
60370.4
60649.8
61020.7
61819.2
64053.5
70573.6
89301.7
140124
271187
622523
1.88265e+06
1.23017e+07
5913.46
16322.9
27350.1
37545.1
45773.7
51713.9
55623.9
57802
58832.5
59260.6
59418.8
59471.6
59487.6
59492.3
59493.8
59494.7
59495.5
59496.4
59497.6
59499.1
59501
59503.5
59506.5
59510.6
59515.7
59522.4
59531
59542.6
59557.8
59578.6
59606.1
59643.2
59690.4
59751.8
59828.1
59927.9
60053.7
60222.4
60444.6
60755.8
61136.2
61862.1
63724.1
69007.3
84441.2
128020
246753
583639
1.83325e+06
1.22567e+07
5911.97
16318.2
27340.9
37530
45751.6
51667
55567.7
57747.7
58779.5
59208.1
59366.6
59419.4
59435.6
59440.4
59442
59442.9
59443.7
59444.8
59446
59447.7
59449.7
59452.4
59455.6
59460
59465.4
59472.6
59482
59494.9
59512.4
59537.2
59570.9
59616.6
59673.9
59746
59833.6
59945.5
60086.6
60274.9
60524.5
60873.8
61283.9
61974.4
63583.8
67816.9
80008.9
122375
238412
587443
1.93053e+06
1.67845e+07
5910.39
16312.9
27330
37511.2
45721.9
51610.7
55494.6
57668.5
58697.5
59124.8
59283
59336
59352.2
59357.1
59358.7
59359.7
59360.6
59361.7
59363.1
59364.8
59367
59369.8
59373.2
59377.8
59383.5
59391.3
59401.7
59416.7
59438.2
59470.1
59515.2
59575.3
59647.8
59734
59835.3
59961
60118.3
60329.2
60608.6
61007
61454
62163
63629.5
67062.6
76490.6
109841
206947
516655
1.78559e+06
1.66112e+07
5908.77
16307.2
27318
37489.7
45686.1
51545.8
55402.6
57559.5
58580.1
59004.5
59162
59215
59231.3
59236.2
59237.9
59238.9
59239.9
59241
59242.4
59244.2
59246.4
59249.2
59252.7
59257.4
59263.5
59271.9
59283.9
59302.4
59331.2
59376.4
59442.3
59524.1
59616.1
59718.6
59834.9
59974.5
60148.7
60380.8
60692
61139.5
61637.5
62405.2
63842.5
66758.7
74038.5
99326.3
176471
446352
1.66558e+06
1.64753e+07
5907.26
16301.7
27305.9
37467.3
45647.4
51476.9
55294.9
57423.5
58431.3
58851.8
59008.8
59061.8
59078.3
59083.3
59085
59086
59086.9
59088
59089.3
59091
59093.1
59095.9
59099.4
59104.1
59110.4
59119.8
59134.4
59159.1
59201.4
59272
59366.5
59472.6
59584.7
59703.3
59834
59986.8
60177.1
60429.3
60772.8
61267.3
61816.9
62684.4
64185.6
66869
72685.2
91294.3
148613
366562
1.4831e+06
1.61495e+07
5905.94
16296.7
27294.9
37446.4
45610.5
51411.2
55181.8
57276
58269.9
58687
58843.7
58897.1
58913.8
58918.8
58920.5
58921.5
58922.3
58923.3
58924.5
58926.1
58928
58930.7
58934
58938.6
58945.3
58956.3
58975.6
59011.9
59079.2
59180.8
59302.1
59429.5
59558.9
59690.9
59833.7
59996.9
60201.6
60470
60843.9
61376.9
61979.7
62967.6
64601.3
67303.9
72406.7
86410.9
125673
276058
1.29685e+06
1.05392e+07
5904.93
16292.8
27286
37429.4
45579.8
51356.3
55079.1
57140
58122
58536.9
58693.9
58747.8
58764.7
58769.8
58771.5
58772.3
58773.1
58774
58775
58776.5
58778.2
58780.7
58783.8
58788.5
58795.9
58809.6
58837.2
58894.4
58990.2
59116
59256.6
59399.4
59541.1
59682.7
59834.4
60005.4
60221.2
60501.9
60900.9
61462.3
62106.7
63220.7
65013.3
67896.8
72887.4
84651
111269
199283
829691
8.47078e+06
5904.26
16290.3
27280.3
37418.1
45559.1
51318.9
55002.1
57037
58011
58424.8
58582.5
58636.8
58653.9
58659.1
58660.7
58661.5
58662.2
58663
58663.9
58665.3
58666.9
58669.2
58672.2
58677.1
58685.5
58703.5
58744.6
58822
58935.7
59076.2
59228.9
59381.2
59530.6
59677.9
59835.1
60010.6
60233.8
60521.8
60937.6
61516.1
62187.5
63408.2
65337.3
68432.6
73634.1
84867
106191
158496
325626
2.28214e+06
5904.05
16289.4
27278.3
37414.2
45551.9
51306
54968.8
56991.4
57962.5
58376.4
58534.5
58589.1
58606.4
58611.6
58613.2
58614
58614.6
58615.4
58616.3
58617.6
58619.1
58621.3
58624.4
58629.3
58638.8
58661.7
58711.9
58796.6
58916
59061.6
59219
59374.9
59527.2
59676.5
59835.6
60012.8
60238.4
60529
60950.5
61534.8
62206.9
63496.7
65495.7
68711.2
74090.4
85327.1
105635
148107
239710
473512
5904.26
16290.3
27280.3
37418.1
45559.1
51318.9
55002.1
57037
58011
58424.8
58582.5
58636.8
58653.9
58659.1
58660.7
58661.5
58662.2
58663
58663.9
58665.3
58666.9
58669.2
58672.2
58677.1
58685.5
58703.4
58744.3
58821.2
58934.5
59075.2
59228.3
59380.9
59530.5
59677.9
59835.1
60010.7
60233.8
60521.8
60937.6
61516.2
62163.1
63467.6
65442.6
68616.1
73930.2
85044.8
105871
153829
304445
1.70207e+06
5904.93
16292.8
27286
37429.4
45579.8
51356.3
55079.1
57140
58122
58536.9
58693.9
58747.8
58764.7
58769.8
58771.5
58772.3
58773.1
58774
58775
58776.5
58778.2
58780.7
58783.8
58788.5
58795.9
58809.5
58836.6
58892
58987
59114.1
59255.7
59399
59541
59682.7
59834.5
60005.5
60221.3
60502
60901
61462.3
62061.9
63325
65192.3
68186.3
73267.3
84616
109285
185495
570950
7.92759e+06
5905.94
16296.7
27294.9
37446.4
45610.5
51411.2
55181.8
57276
58269.9
58687
58843.7
58897.1
58913.8
58918.8
58920.5
58921.5
58922.3
58923.3
58924.5
58926.1
58928
58930.7
58934
58938.6
58945.3
58956.2
58975.3
59011
59078.1
59180
59301.7
59429.4
59558.9
59691
59833.8
59997
60201.7
60470
60844
61377
61917.3
63101.5
64814.7
67595.5
72578.2
85719.9
121117
254454
947618
1.03663e+07
5907.26
16301.7
27305.9
37467.3
45647.4
51476.9
55294.9
57423.5
58431.3
58851.8
59008.8
59061.8
59078.3
59083.3
59085
59086
59086.9
59088
59089.3
59091
59093.1
59095.9
59099.4
59104.1
59110.4
59119.7
59134.3
59158.8
59201
59271.6
59366.3
59472.6
59584.8
59703.4
59834.1
59986.8
60177.2
60429.4
60772.9
61267.3
61745.4
62827.1
64389.4
67055.7
72421.9
89773.4
142313
345990
1.41724e+06
1.5717e+07
5908.77
16307.2
27318
37489.7
45686.1
51545.8
55402.6
57559.5
58580.1
59004.5
59162
59215
59231.3
59236.2
59237.9
59238.9
59239.9
59241
59242.4
59244.2
59246.4
59249.2
59252.7
59257.4
59263.4
59271.9
59283.9
59302.2
59331
59376.3
59442.3
59524.1
59616.2
59718.7
59835
59974.6
60148.8
60380.8
60692
61139.5
61559
62542
64001.1
66769
73223.9
97087.7
169293
428249
1.63157e+06
1.64444e+07
5910.39
16312.9
27330
37511.2
45721.9
51610.7
55494.6
57668.5
58697.5
59124.8
59283
59336
59352.2
59357.1
59358.7
59359.7
59360.6
59361.7
59363.1
59364.8
59367
59369.8
59373.2
59377.8
59383.5
59391.3
59401.7
59416.7
59438.2
59470.1
59515.2
59575.4
59647.9
59734.1
59835.4
59961.1
60118.4
60329.2
60608.6
61007.1
61381.5
62275.7
63716.3
66858.1
75137
107039
199292
499873
1.75932e+06
1.65931e+07
5911.97
16318.2
27340.9
37530
45751.6
51667
55567.7
57747.7
58779.5
59208.1
59366.6
59419.4
59435.6
59440.4
59442
59442.9
59443.7
59444.8
59446
59447.7
59449.7
59452.4
59455.6
59460
59465.4
59472.6
59482
59494.9
59512.4
59537.2
59571
59616.6
59673.9
59746
59833.7
59945.5
60086.6
60275
60524.6
60873.8
61214.8
62058.6
63584.9
67384.3
78123.8
119119
230614
569435
1.88338e+06
1.66993e+07
5913.46
16322.9
27350.1
37545.1
45773.7
51714
55623.9
57802
58832.5
59260.6
59418.8
59471.6
59487.6
59492.3
59493.8
59494.7
59495.5
59496.4
59497.6
59499.1
59501
59503.5
59506.5
59510.6
59515.7
59522.4
59531
59542.6
59557.8
59578.6
59606.1
59643.2
59690.4
59751.9
59828.1
59927.9
60053.7
60222.5
60444.6
60755.8
61089.9
61904.5
63629.9
68367.9
82181.2
121875
233276
557346
1.77013e+06
1.19986e+07
5914.8
16326.9
27357.5
37556.5
45788.5
51753.3
55667.3
57838.2
58864.8
59291.4
59449.1
59501.5
59517.5
59522.1
59523.6
59524.4
59525.1
59526
59527
59528.4
59530.2
59532.5
59535.4
59539.3
59544
59550.4
59558.4
59569.2
59582.9
59601.5
59625.4
59657.6
59698.4
59752.6
59820.1
59909.7
60022.2
60172.8
60370.4
60649.8
60982.6
61826.8
63861.8
69738.9
86779.2
133915
258746
603042
1.8603e+06
1.22851e+07
5916
16330.3
27363.4
37565
45797.9
51787.9
55702.5
57862.9
58884.4
59308.9
59465.8
59518
59533.8
59538.4
59539.8
59540.6
59541.2
59542.1
59543.1
59544.4
59546.1
59548.3
59551
59554.7
59559.3
59565.4
59573
59583.1
59595.9
59613.1
59634.7
59663.8
59700.4
59749.2
59809.6
59890.7
59990.5
60127.8
60298.2
60573.8
60929.4
61831
64294.2
71485
91898.9
146344
283827
642884
1.89936e+06
1.2303e+07
5917.14
16333.5
27368.9
37572.5
45805.8
51821.2
55734
57882.9
58898.9
59321.1
59477.2
59529
59544.7
59549.3
59550.7
59551.5
59552.1
59552.9
59553.9
59555.2
59556.9
59559.1
59561.8
59565.4
59569.9
59575.8
59583.2
59593
59605.2
59621.5
59641.9
59669.1
59702.9
59748.1
59804
59879
59970.4
60098.4
60257
60525.9
61089
62496.7
66530.2
78099.6
109486
189539
388409
930354
2.95546e+06
1.79872e+07
5918.64
16338.6
27377.8
37584.8
45822
51860.5
55770.9
57909.2
58920
59340
59495.1
59546.7
59562.3
59566.9
59568.4
59569.2
59569.9
59570.8
59571.9
59573.4
59575.1
59577.4
59580.3
59584
59588.7
59594.7
59602.2
59612.1
59624.3
59640.3
59660.2
59686.3
59718.8
59761.2
59813.7
59882.5
59968.2
60083.1
60241.6
60504.4
61093.3
62673.6
67275.6
80262.8
114708
200361
408350
966366
3.0291e+06
1.79872e+07
5922.1
16352.6
27404.2
37622.1
45874.3
51933.1
55842.7
57973.3
58979.4
59397.2
59551.5
59602.9
59618.7
59623.4
59625.2
59626.3
59627.3
59628.6
59630.1
59632.1
59634.4
59637.3
59641
59645.5
59651
59658
59666.7
59677.6
59691.2
59708.4
59729.8
59757
59790.5
59833.3
59885.9
59952.9
60035.5
60142.6
60293.4
60552.1
61179.3
62905.8
67915.9
81884.3
118272
206920
418190
978391
3.04038e+06
1.79872e+07
5933.26
16400.5
27496.2
37752.8
46045.5
52134.5
56048.5
58174.7
59177
59593
59746.9
59798.5
59814.8
59820.2
59822.8
59824.9
59827
59829.6
59832.6
59836.1
59840.3
59845.3
59851.4
59858.6
59867.3
59877.7
59890.4
59905.7
59924.3
59947
59974.6
60008.4
60049.7
60100.1
60161.7
60236.6
60329.2
60444.4
60607.5
60886.9
61553.2
63408.1
68768.7
83535.5
121435
212273
425691
986969
3.04803e+06
1.79872e+07
5970.44
16560.4
27803.6
38188.3
46588.8
52750.8
56684.9
58812.6
59813.5
60228.7
60383.1
60435.9
60453.9
60461.5
60466.5
60471.2
60476.6
60482.7
60489.9
60498
60507.7
60518.7
60531.7
60546.6
60564.3
60584.6
60608.8
60636.8
60670.2
60709
60755.5
60809.5
60874.4
60949.9
61040.6
61145.8
61272.8
61423.4
61627.4
61955.1
62694.1
64683.5
70330.9
85688
124616
216783
431225
992542
3.05229e+06
1.79872e+07
6088.08
17060
28753
39521.4
48210.2
54564.5
58560
60703.7
61707.7
62124.3
62281
62337.2
62359.9
62372.6
62383.8
62395.5
62409
62424.1
62441.9
62461.7
62485
62511
62541.6
62575.8
62615.9
62661
62714
62773.5
62843.7
62922.5
63015.6
63120.2
63243.7
63382.2
63545.5
63728.1
63943.2
64186.5
64494.1
64932.7
65799.7
67953.8
73852.8
89621.2
129164
221996
436800
997988
3.0569e+06
1.79872e+07
6437.27
18517.6
31465.7
43271.6
52722.1
59510.7
63650.2
65836
66849.8
67270.1
67432.4
67496.5
67529.2
67553.5
67578.3
67605.3
67636.7
67671.8
67712.8
67758.3
67811.4
67870.4
67939.1
68015.5
68104.4
68203
68318.1
68445.5
68594.1
68758.5
68950.1
69161.5
69407.5
69677.8
69991.1
70333.2
70727.6
71159
71672.9
72322.1
73408.1
75767.3
81836.2
97661.9
136990
229074
442551
1.00227e+06
3.05981e+06
1.79872e+07
7424.55
22546.3
38721.5
53073.4
64276.2
71847.6
76257
78509.5
79533.2
79956.9
80128.4
80207
80258.5
80304.6
80355.3
80411.5
80476.8
80549.5
80634.1
80728
80837
80957.6
81097.7
81252.3
81431.7
81629.2
81858.4
82110.1
82401.8
82721.1
83090.3
83492.7
83956.4
84458.9
85034.2
85652.7
86354.5
87104.8
87963
88953.8
90370
92973.2
99071.6
114409
152252
241398
450914
1.00727e+06
3.06294e+06
1.79872e+07
10175.3
33344.9
57198.3
77100.7
91298.4
99993.5
104706
106990
107996
108412
108594
108694
108774
108855
108946
109047
109165
109297
109449
109618
109813
110028
110278
110552
110870
111217
111619
112057
112562
113111
113741
114422
115200
116035
116981
117986
119112
120296
121615
123051
124871
127686
133522
147462
181747
264239
464823
1.0134e+06
3.06526e+06
1.79872e+07
18101.2
61930.3
102356
131486
149204
158811
163549
165692
166599
166979
167165
167287
167402
167523
167664
167820
168001
168202
168435
168692
168991
169318
169696
170110
170589
171110
171711
172362
173111
173917
174841
175829
176954
178145
179489
180898
182464
184087
185866
187727
189899
192776
197932
209382
237583
308457
492357
1.02483e+06
3.06834e+06
1.79872e+07
42918.9
137723
206856
246057
265698
274854
278888
280575
281267
281570
281744
281882
282026
282182
282365
282567
282803
283062
283365
283695
284081
284500
284988
285516
286129
286789
287554
288374
289319
290326
291481
292701
294090
295543
297181
298874
300752
302668
304754
306871
309217
311935
316058
324211
344198
398039
553674
1.05241e+06
3.07367e+06
1.79872e+07
131317
341771
446039
488769
505443
511914
514428
515407
515817
516024
516179
516324
516488
516667
516879
517111
517385
517682
518032
518409
518854
519331
519892
520491
521194
521939
522812
523732
524804
525926
527227
528576
530127
531720
533529
535364
537415
539466
541708
543920
546308
548779
551905
556890
568349
601627
714355
1.14279e+06
3.09504e+06
1.79872e+07
505006
937838
1.05712e+06
1.08805e+06
1.09668e+06
1.09936e+06
1.1003e+06
1.10067e+06
1.10088e+06
1.10103e+06
1.10119e+06
1.10135e+06
1.10155e+06
1.10177e+06
1.10203e+06
1.10231e+06
1.10264e+06
1.103e+06
1.10343e+06
1.10388e+06
1.10442e+06
1.10499e+06
1.10567e+06
1.10638e+06
1.10724e+06
1.10812e+06
1.10918e+06
1.11026e+06
1.11156e+06
1.11287e+06
1.11444e+06
1.11601e+06
1.11787e+06
1.11971e+06
1.12186e+06
1.12396e+06
1.12638e+06
1.12871e+06
1.13133e+06
1.13381e+06
1.13651e+06
1.13906e+06
1.14186e+06
1.145e+06
1.15032e+06
1.16464e+06
1.22294e+06
1.51518e+06
3.23505e+06
1.79872e+07
2.45203e+06
3.14928e+06
3.22515e+06
3.23478e+06
3.23649e+06
3.23698e+06
3.23725e+06
3.23746e+06
3.23771e+06
3.23796e+06
3.23829e+06
3.23862e+06
3.23905e+06
3.23948e+06
3.24004e+06
3.2406e+06
3.24131e+06
3.24203e+06
3.24294e+06
3.24384e+06
3.245e+06
3.24613e+06
3.2476e+06
3.249e+06
3.25083e+06
3.25256e+06
3.25482e+06
3.25694e+06
3.2597e+06
3.26226e+06
3.26557e+06
3.26863e+06
3.27253e+06
3.27609e+06
3.28058e+06
3.28463e+06
3.28963e+06
3.2941e+06
3.29945e+06
3.30419e+06
3.30962e+06
3.31436e+06
3.31953e+06
3.32398e+06
3.32879e+06
3.33417e+06
3.34916e+06
3.45056e+06
4.48376e+06
1.79872e+07
1.87595e+07
1.87595e+07
1.87595e+07
1.87595e+07
1.87595e+07
1.87595e+07
1.87595e+07
1.87595e+07
1.87595e+07
1.87595e+07
1.87595e+07
1.87595e+07
1.87595e+07
1.87595e+07
1.87595e+07
1.87595e+07
1.87595e+07
1.87595e+07
1.87595e+07
1.87595e+07
1.87595e+07
1.87595e+07
1.87595e+07
1.87595e+07
1.87595e+07
1.87595e+07
1.87595e+07
1.87595e+07
1.87595e+07
1.87595e+07
1.87595e+07
1.87595e+07
1.87595e+07
1.87595e+07
1.87595e+07
1.87595e+07
1.87595e+07
1.87595e+07
1.87595e+07
1.87595e+07
1.87595e+07
1.87595e+07
1.87595e+07
1.87595e+07
1.87595e+07
1.87595e+07
1.87595e+07
1.87595e+07
1.87595e+07
1.87595e+07
7.12191e+07
6.84492e+07
6.7758e+07
6.76773e+07
6.76672e+07
6.76661e+07
6.7666e+07
6.7666e+07
6.7666e+07
6.7666e+07
6.7666e+07
6.7666e+07
6.7666e+07
6.7666e+07
6.7666e+07
6.76659e+07
6.76645e+07
6.76541e+07
6.7571e+07
6.68128e+07
1.09282e+06
2.16941e+06
2.86353e+06
3.14499e+06
3.25262e+06
3.29517e+06
3.31245e+06
3.31956e+06
3.3225e+06
3.32371e+06
3.32421e+06
3.32442e+06
3.3245e+06
3.32453e+06
3.32455e+06
3.32454e+06
3.32447e+06
3.32385e+06
3.3192e+06
3.28948e+06
1.04413e+07
1.22191e+07
1.19773e+07
1.19407e+07
1.19434e+07
1.19476e+07
1.19499e+07
1.1951e+07
1.19514e+07
1.19516e+07
1.19517e+07
1.19517e+07
1.19517e+07
1.19517e+07
1.19517e+07
1.19516e+07
1.19506e+07
1.19426e+07
1.18802e+07
1.13901e+07
1.87595e+07
1.87595e+07
1.87595e+07
1.87595e+07
1.87595e+07
1.87595e+07
1.87595e+07
1.87595e+07
1.87595e+07
1.87595e+07
1.87595e+07
1.87595e+07
1.87595e+07
1.87595e+07
1.87595e+07
1.87595e+07
1.87595e+07
1.87595e+07
1.87595e+07
1.87595e+07
1.87595e+07
1.87595e+07
1.87595e+07
1.87595e+07
1.87595e+07
1.87595e+07
1.87595e+07
1.87595e+07
1.87595e+07
1.87595e+07
1.87595e+07
1.87595e+07
1.87595e+07
1.87595e+07
1.87595e+07
1.87595e+07
1.87595e+07
1.87595e+07
1.87595e+07
1.87595e+07
1.87595e+07
1.87595e+07
1.87595e+07
1.87595e+07
1.87595e+07
1.87595e+07
1.87595e+07
1.87595e+07
1.87595e+07
1.87595e+07
1.87595e+07
1.87595e+07
1.87595e+07
1.87595e+07
1.87595e+07
1.87595e+07
1.87595e+07
1.87595e+07
1.87595e+07
1.87595e+07
1.87595e+07
1.87595e+07
1.87595e+07
1.87595e+07
1.87595e+07
1.87595e+07
1.87595e+07
1.87595e+07
1.87595e+07
1.87595e+07
1.87595e+07
1.87595e+07
1.87595e+07
1.87595e+07
1.87595e+07
1.87595e+07
1.87595e+07
1.87595e+07
1.87595e+07
1.87595e+07
1.87595e+07
1.87595e+07
1.87595e+07
1.87595e+07
1.87595e+07
1.87595e+07
1.87595e+07
1.87595e+07
1.87595e+07
1.87595e+07
1.87595e+07
1.87595e+07
1.87595e+07
1.87595e+07
1.87595e+07
1.87595e+07
1.87595e+07
1.87595e+07
1.87595e+07
1.87595e+07
1.79872e+07
4.48058e+06
3.34688e+06
3.22693e+06
3.21091e+06
3.20864e+06
3.20895e+06
3.20998e+06
3.21131e+06
3.21278e+06
3.2143e+06
3.21582e+06
3.21733e+06
3.21879e+06
3.22019e+06
3.22152e+06
3.22277e+06
3.22395e+06
3.22503e+06
3.22604e+06
3.22696e+06
3.22781e+06
3.22858e+06
3.22928e+06
3.22991e+06
3.23048e+06
3.23099e+06
3.23146e+06
3.23186e+06
3.23224e+06
3.23256e+06
3.23287e+06
3.23311e+06
3.23337e+06
3.23355e+06
3.23376e+06
3.2339e+06
3.23407e+06
3.23418e+06
3.23431e+06
3.23439e+06
3.2345e+06
3.23457e+06
3.23464e+06
3.23471e+06
3.23475e+06
3.23484e+06
3.23482e+06
3.23494e+06
3.23488e+06
3.23502e+06
3.23491e+06
3.23509e+06
3.23495e+06
3.23514e+06
3.23498e+06
3.23521e+06
3.23502e+06
3.23524e+06
3.23505e+06
3.23525e+06
3.23508e+06
3.23524e+06
3.2351e+06
3.23523e+06
3.23511e+06
3.23522e+06
3.23513e+06
3.23521e+06
3.23514e+06
3.2352e+06
3.23515e+06
3.23519e+06
3.23515e+06
3.23519e+06
3.23516e+06
3.23518e+06
3.23516e+06
3.23518e+06
3.23516e+06
3.23518e+06
3.23517e+06
3.23518e+06
3.23517e+06
3.23517e+06
3.23517e+06
3.23517e+06
3.23517e+06
3.23517e+06
3.23517e+06
3.23517e+06
3.23517e+06
3.23517e+06
3.23517e+06
3.23517e+06
3.23517e+06
3.23517e+06
3.23517e+06
3.23518e+06
3.23517e+06
1.79872e+07
3.34093e+06
1.51458e+06
1.17558e+06
1.09776e+06
1.07663e+06
1.07042e+06
1.06913e+06
1.06975e+06
1.07118e+06
1.07295e+06
1.07485e+06
1.07676e+06
1.07862e+06
1.08042e+06
1.08212e+06
1.08373e+06
1.08523e+06
1.08663e+06
1.08793e+06
1.08911e+06
1.0902e+06
1.09119e+06
1.09209e+06
1.0929e+06
1.09364e+06
1.09429e+06
1.0949e+06
1.09542e+06
1.09591e+06
1.09632e+06
1.09671e+06
1.09704e+06
1.09735e+06
1.09761e+06
1.09786e+06
1.09805e+06
1.09826e+06
1.09841e+06
1.09857e+06
1.09869e+06
1.09881e+06
1.09891e+06
1.099e+06
1.09909e+06
1.09914e+06
1.09924e+06
1.09925e+06
1.09936e+06
1.09933e+06
1.09946e+06
1.09939e+06
1.09953e+06
1.09944e+06
1.09958e+06
1.09948e+06
1.09962e+06
1.09952e+06
1.09964e+06
1.09955e+06
1.09966e+06
1.09958e+06
1.09967e+06
1.0996e+06
1.09967e+06
1.09962e+06
1.09968e+06
1.09964e+06
1.09968e+06
1.09965e+06
1.09968e+06
1.09966e+06
1.09968e+06
1.09966e+06
1.09968e+06
1.09967e+06
1.09968e+06
1.09967e+06
1.09968e+06
1.09968e+06
1.09968e+06
1.09968e+06
1.09969e+06
1.09968e+06
1.09969e+06
1.09968e+06
1.09969e+06
1.09968e+06
1.09969e+06
1.09969e+06
1.09969e+06
1.09969e+06
1.09969e+06
1.09969e+06
1.09969e+06
1.09969e+06
1.09969e+06
1.09969e+06
1.09969e+06
1.09969e+06
1.79872e+07
3.22811e+06
1.19346e+06
715804
569636
516832
495805
487598
485178
485432
486746
488547
490492
492439
494325
496128
497830
499428
500915
502294
503561
504726
505784
506752
507623
508416
509124
509768
510337
510857
511309
511727
512084
512418
512698
512965
513182
513396
513564
513735
513866
513999
514105
514206
514298
514366
514455
514489
514584
514580
514681
514647
514756
514701
514808
514746
514845
514785
514871
514818
514890
514845
514904
514867
514914
514885
514922
514900
514928
514911
514933
514920
514936
514927
514939
514932
514942
514936
514943
514940
514945
514942
514946
514944
514947
514946
514948
514947
514948
514948
514949
514948
514949
514949
514950
514950
514950
514950
514950
514950
1.79872e+07
3.21793e+06
1.13023e+06
593297
402288
320514
282270
264578
257329
255287
255594
256804
258405
260101
261775
263387
264918
266362
267711
268966
270123
271190
272163
273054
273859
274593
275250
275847
276377
276860
277284
277672
278008
278318
278582
278830
279036
279234
279395
279552
279677
279801
279901
279995
280079
280147
280225
280265
280345
280355
280435
280420
280502
280471
280550
280514
280585
280549
280610
280579
280629
280603
280644
280623
280655
280639
280664
280651
280671
280661
280676
280669
280680
280675
280684
280680
280686
280683
280688
280686
280690
280688
280691
280690
280692
280691
280693
280693
280694
280693
280694
280694
280695
280695
280695
280695
280695
280695
280696
280696
1.79872e+07
3.21966e+06
1.11782e+06
558963
345070
244232
192379
166137
154041
149396
148331
148724
149680
150851
152056
153234
154361
155430
156435
157375
158246
159052
159791
160469
161085
161646
162151
162611
163021
163393
163722
164022
164284
164524
164731
164923
165085
165238
165364
165486
165584
165681
165759
165833
165898
165953
166011
166046
166105
166118
166176
166169
166227
166209
166264
166242
166292
166270
166312
166293
166327
166312
166339
166327
166348
166339
166355
166348
166361
166356
166366
166362
166369
166366
166372
166370
166374
166373
166376
166375
166377
166376
166378
166378
166379
166379
166380
166380
166380
166380
166381
166381
166381
166381
166382
166382
166382
166382
166382
166382
1.79872e+07
3.22575e+06
1.11719e+06
550523
326421
215329
155036
122897
107152
100375
98022.2
97629
97945.1
98544.2
99232.1
99926.5
100600
101245
101856
102430
102967
103466
103925
104349
104735
105088
105407
105698
105959
106196
106406
106597
106765
106918
107051
107174
107279
107377
107458
107537
107600
107663
107712
107761
107802
107838
107875
107899
107936
107946
107983
107979
108015
108005
108039
108026
108057
108044
108070
108059
108080
108071
108087
108081
108094
108088
108098
108094
108102
108099
108105
108103
108107
108106
108109
108108
108111
108110
108112
108111
108113
108112
108113
108113
108114
108114
108114
108114
108115
108115
108115
108115
108115
108115
108116
108116
108116
108116
108116
108116
1.79872e+07
3.23183e+06
1.11963e+06
549975
321961
206198
141360
105690
87574.4
79321.5
76044.1
75007.3
74878.1
75048.4
75340.1
75664.7
75990.1
76306.8
76610.7
76900
77172.6
77428.3
77665.8
77886
78088
78273.8
78442.5
78596.7
78735.3
78861.7
78974.1
79076.8
79167
79249.8
79321.4
79387.9
79444.3
79497.6
79541.7
79584.3
79618.6
79652.6
79679.4
79706.3
79728.1
79748.5
79767.8
79781.8
79801.3
79807.3
79827.9
79825.2
79845.1
79839
79857.8
79850.8
79867.1
79860.6
79874.2
79868.7
79879.6
79875.3
79883.9
79880.6
79887.3
79884.7
79889.9
79888
79892
79890.6
79893.6
79892.6
79894.9
79894.2
79895.9
79895.4
79896.7
79896.4
79897.4
79897.1
79897.9
79897.7
79898.3
79898.1
79898.6
79898.5
79898.8
79898.8
79899.1
79899
79899.2
79899.2
79899.4
79899.4
79899.5
79899.5
79899.6
79899.6
79899.7
79899.7
1.79872e+07
3.24205e+06
1.12426e+06
553029
323206
205152
138010
100265
80570
71295.9
67382.5
65927.1
65481.6
65411.4
65464.7
65564.4
65679.3
65797.7
65915.6
66031.1