/*--------------------------------*- C++ -*----------------------------------*\
| =========                 |                                                 |
| \\      /  F ield         | foam-extend: Open Source CFD                    |
|  \\    /   O peration     | Version:     4.0                                |
|   \\  /    A nd           | Web:         http://www.foam-extend.org         |
|    \\/     M anipulation  |                                                 |
\*---------------------------------------------------------------------------*/
FoamFile
{
    version     2.0;
    format      ascii;
    class       volScalarField;
    location    "5e-05";
    object      pd;
}
// * * * * * * * * * * * * * * * * * * * * * * * * * * * * * * * * * * * * * //

dimensions      [1 -1 -2 0 0 0 0];

internalField   nonuniform List<scalar> 
28770
(
1.03017e+07
1.01434e+07
1.04588e+07
9.98831e+06
1.06106e+07
9.84064e+06
1.07529e+07
9.70426e+06
1.08821e+07
9.58259e+06
1.09949e+07
9.47848e+06
1.10889e+07
9.39411e+06
1.11622e+07
9.33089e+06
1.12137e+07
9.28949e+06
1.12432e+07
9.2698e+06
1.12509e+07
9.27097e+06
1.1238e+07
9.29151e+06
1.12062e+07
9.32933e+06
1.11577e+07
9.38187e+06
1.10951e+07
9.4462e+06
1.10213e+07
9.51918e+06
1.09393e+07
9.59765e+06
1.08519e+07
9.6786e+06
1.0762e+07
9.75943e+06
1.06719e+07
9.83821e+06
1.05835e+07
9.91386e+06
1.0498e+07
9.98625e+06
1.04162e+07
1.00561e+07
1.03385e+07
1.01247e+07
1.02645e+07
1.01937e+07
1.03018e+07
1.01436e+07
1.0459e+07
9.98863e+06
1.06108e+07
9.84114e+06
1.07532e+07
9.70501e+06
1.08826e+07
9.58369e+06
1.09958e+07
9.48005e+06
1.10902e+07
9.39629e+06
1.11641e+07
9.33388e+06
1.12165e+07
9.29355e+06
1.12471e+07
9.27528e+06
1.12563e+07
9.27834e+06
1.12456e+07
9.3014e+06
1.12166e+07
9.34257e+06
1.11719e+07
9.39958e+06
1.11143e+07
9.46983e+06
1.10471e+07
9.55061e+06
1.09738e+07
9.6392e+06
1.08977e+07
9.73299e+06
1.0822e+07
9.82961e+06
1.0749e+07
9.92687e+06
1.06801e+07
1.00228e+07
1.06152e+07
1.01154e+07
1.05532e+07
1.02031e+07
1.04916e+07
1.02846e+07
1.04278e+07
1.03594e+07
1.03015e+07
1.01432e+07
1.04586e+07
9.98814e+06
1.06103e+07
9.84038e+06
1.07524e+07
9.70386e+06
1.08812e+07
9.58199e+06
1.09936e+07
9.4776e+06
1.1087e+07
9.39285e+06
1.11594e+07
9.32912e+06
1.12098e+07
9.28703e+06
1.12377e+07
9.2664e+06
1.12434e+07
9.26628e+06
1.12278e+07
9.28503e+06
1.11925e+07
9.32036e+06
1.11395e+07
9.36941e+06
1.1071e+07
9.42886e+06
1.09897e+07
9.49511e+06
1.08981e+07
9.56438e+06
1.07988e+07
9.63311e+06
1.06943e+07
9.6983e+06
1.05869e+07
9.75808e+06
1.04792e+07
9.81226e+06
1.03737e+07
9.86254e+06
1.02731e+07
9.91223e+06
1.01804e+07
9.96554e+06
1.00978e+07
1.00265e+07
1.03019e+07
1.01439e+07
1.0459e+07
9.98909e+06
1.06108e+07
9.84187e+06
1.07533e+07
9.7061e+06
1.08827e+07
9.58525e+06
1.0996e+07
9.48222e+06
1.10907e+07
9.39928e+06
1.11649e+07
9.33794e+06
1.12178e+07
9.299e+06
1.12491e+07
9.28254e+06
1.12594e+07
9.28797e+06
1.125e+07
9.3141e+06
1.12229e+07
9.35927e+06
1.11809e+07
9.42142e+06
1.11271e+07
9.49828e+06
1.10652e+07
9.5875e+06
1.09993e+07
9.68674e+06
1.09334e+07
9.79377e+06
1.08713e+07
9.90647e+06
1.08158e+07
1.00225e+07
1.07678e+07
1.0139e+07
1.07261e+07
1.02522e+07
1.06869e+07
1.03579e+07
1.0645e+07
1.04518e+07
1.05946e+07
1.0531e+07
1.03014e+07
1.01432e+07
1.04583e+07
9.98813e+06
1.06098e+07
9.84038e+06
1.07516e+07
9.70384e+06
1.088e+07
9.58191e+06
1.09919e+07
9.47744e+06
1.10845e+07
9.39257e+06
1.11559e+07
9.32867e+06
1.12049e+07
9.28632e+06
1.12309e+07
9.26531e+06
1.12342e+07
9.26463e+06
1.12156e+07
9.2825e+06
1.11763e+07
9.31644e+06
1.11182e+07
9.36333e+06
1.10434e+07
9.41943e+06
1.0954e+07
9.48052e+06
1.08524e+07
9.54208e+06
1.07408e+07
9.59962e+06
1.06213e+07
9.64929e+06
1.04962e+07
9.68882e+06
1.03683e+07
9.71865e+06
1.02415e+07
9.74261e+06
1.01207e+07
9.76727e+06
1.00118e+07
9.80066e+06
9.92046e+06
9.85021e+06
1.0302e+07
1.01442e+07
1.0459e+07
9.98967e+06
1.06106e+07
9.84279e+06
1.0753e+07
9.70746e+06
1.08824e+07
9.58718e+06
1.09957e+07
9.48491e+06
1.10904e+07
9.40295e+06
1.11647e+07
9.34288e+06
1.12177e+07
9.30558e+06
1.12492e+07
9.29125e+06
1.12597e+07
9.29941e+06
1.12508e+07
9.32903e+06
1.12245e+07
9.37862e+06
1.11838e+07
9.44635e+06
1.1132e+07
9.53021e+06
1.10735e+07
9.62814e+06
1.1013e+07
9.73818e+06
1.09555e+07
9.85858e+06
1.09061e+07
9.98768e+06
1.08686e+07
1.01235e+07
1.08443e+07
1.02624e+07
1.08302e+07
1.03988e+07
1.08199e+07
1.05251e+07
1.08041e+07
1.06333e+07
1.07724e+07
1.07165e+07
1.03013e+07
1.01432e+07
1.0458e+07
9.98828e+06
1.06092e+07
9.84063e+06
1.07506e+07
9.70418e+06
1.08786e+07
9.58236e+06
1.09898e+07
9.47801e+06
1.10815e+07
9.39328e+06
1.11517e+07
9.32957e+06
1.11991e+07
9.28744e+06
1.12232e+07
9.26669e+06
1.12238e+07
9.26626e+06
1.12019e+07
9.28432e+06
1.11584e+07
9.31826e+06
1.10949e+07
9.36471e+06
1.10135e+07
9.41951e+06
1.09159e+07
9.47778e+06
1.08043e+07
9.53399e+06
1.06803e+07
9.58222e+06
1.05456e+07
9.61693e+06
1.04019e+07
9.63441e+06
1.0252e+07
9.63512e+06
1.01007e+07
9.62558e+06
9.95542e+06
9.61681e+06
9.82612e+06
9.62255e+06
9.72369e+06
9.65568e+06
1.03021e+07
1.01445e+07
1.04588e+07
9.99033e+06
1.06103e+07
9.84385e+06
1.07525e+07
9.70903e+06
1.08817e+07
9.58942e+06
1.09948e+07
9.488e+06
1.10893e+07
9.40714e+06
1.11633e+07
9.34849e+06
1.1216e+07
9.31304e+06
1.12471e+07
9.30105e+06
1.12572e+07
9.3122e+06
1.12478e+07
9.34559e+06
1.1221e+07
9.39989e+06
1.11797e+07
9.47345e+06
1.11278e+07
9.56443e+06
1.107e+07
9.67101e+06
1.10117e+07
9.79156e+06
1.09596e+07
9.92489e+06
1.09207e+07
1.00703e+07
1.09016e+07
1.02271e+07
1.0905e+07
1.03923e+07
1.09257e+07
1.0557e+07
1.09541e+07
1.07102e+07
1.09751e+07
1.08377e+07
1.09707e+07
1.09265e+07
1.03012e+07
1.01433e+07
1.04577e+07
9.98858e+06
1.06085e+07
9.84112e+06
1.07495e+07
9.70488e+06
1.08769e+07
9.5833e+06
1.09874e+07
9.47927e+06
1.10781e+07
9.39495e+06
1.11471e+07
9.33177e+06
1.11929e+07
9.29036e+06
1.12148e+07
9.27052e+06
1.12127e+07
9.27125e+06
1.11872e+07
9.29072e+06
1.11393e+07
9.32628e+06
1.10705e+07
9.37441e+06
1.09824e+07
9.43063e+06
1.08769e+07
9.48942e+06
1.07556e+07
9.54402e+06
1.06198e+07
9.5865e+06
1.04704e+07
9.60826e+06
1.03078e+07
9.60202e+06
1.01333e+07
9.56643e+06
9.95229e+06
9.51219e+06
9.77456e+06
9.45639e+06
9.61587e+06
9.42178e+06
9.49621e+06
9.43079e+06
1.03022e+07
1.01449e+07
1.04586e+07
9.99105e+06
1.06098e+07
9.84501e+06
1.07518e+07
9.71075e+06
1.08807e+07
9.59185e+06
1.09934e+07
9.49136e+06
1.10875e+07
9.41168e+06
1.1161e+07
9.35456e+06
1.12129e+07
9.32107e+06
1.12431e+07
9.31159e+06
1.12519e+07
9.32591e+06
1.12409e+07
9.36326e+06
1.1212e+07
9.42246e+06
1.11683e+07
9.50197e+06
1.11135e+07
9.60005e+06
1.10527e+07
9.71492e+06
1.09922e+07
9.84512e+06
1.09403e+07
9.98994e+06
1.09074e+07
1.01502e+07
1.09054e+07
1.03286e+07
1.09424e+07
1.05259e+07
1.10083e+07
1.07276e+07
1.10904e+07
1.09192e+07
1.11658e+07
1.1077e+07
1.12029e+07
1.11758e+07
1.03011e+07
1.01435e+07
1.04573e+07
9.98901e+06
1.06078e+07
9.84181e+06
1.07484e+07
9.70586e+06
1.08752e+07
9.58467e+06
1.09849e+07
9.48112e+06
1.10747e+07
9.39745e+06
1.11423e+07
9.33515e+06
1.11864e+07
9.29492e+06
1.12061e+07
9.27665e+06
1.12012e+07
9.27945e+06
1.11721e+07
9.30161e+06
1.11198e+07
9.34056e+06
1.10456e+07
9.39284e+06
1.09511e+07
9.45387e+06
1.0838e+07
9.51767e+06
1.0708e+07
9.5764e+06
1.0562e+07
9.61964e+06
1.03999e+07
9.63397e+06
1.02193e+07
9.60417e+06
1.00174e+07
9.52135e+06
9.79981e+06
9.40578e+06
9.57662e+06
9.28111e+06
9.37118e+06
9.18468e+06
9.22112e+06
9.15701e+06
1.03022e+07
1.01452e+07
1.04583e+07
9.99178e+06
1.06092e+07
9.84621e+06
1.07508e+07
9.71254e+06
1.08794e+07
9.59438e+06
1.09916e+07
9.49484e+06
1.1085e+07
9.41638e+06
1.11577e+07
9.36085e+06
1.12086e+07
9.32938e+06
1.12372e+07
9.32249e+06
1.12441e+07
9.34008e+06
1.12304e+07
9.38153e+06
1.11979e+07
9.44576e+06
1.11495e+07
9.53131e+06
1.10887e+07
9.63642e+06
1.10205e+07
9.75915e+06
1.09516e+07
9.89764e+06
1.08914e+07
1.00509e+07
1.08546e+07
1.02211e+07
1.08632e+07
1.04174e+07
1.09448e+07
1.06578e+07
1.10684e+07
1.09075e+07
1.12262e+07
1.11576e+07
1.13865e+07
1.13679e+07
1.14896e+07
1.14876e+07
1.0301e+07
1.01438e+07
1.0457e+07
9.98953e+06
1.06071e+07
9.84264e+06
1.07472e+07
9.70707e+06
1.08735e+07
9.58634e+06
1.09824e+07
9.48342e+06
1.10711e+07
9.4006e+06
1.11375e+07
9.33946e+06
1.11799e+07
9.3008e+06
1.11973e+07
9.28469e+06
1.11896e+07
9.2904e+06
1.11571e+07
9.31645e+06
1.11004e+07
9.36058e+06
1.10209e+07
9.41961e+06
1.09201e+07
9.48928e+06
1.07999e+07
9.56373e+06
1.06624e+07
9.63471e+06
1.05089e+07
9.68989e+06
1.03388e+07
9.70992e+06
1.01459e+07
9.66401e+06
9.91413e+06
9.51423e+06
9.65303e+06
9.31484e+06
9.36473e+06
9.08616e+06
9.07887e+06
8.88972e+06
8.87096e+06
8.8034e+06
1.03022e+07
1.01456e+07
1.0458e+07
9.99251e+06
1.06086e+07
9.84741e+06
1.07498e+07
9.71431e+06
1.08779e+07
9.59689e+06
1.09895e+07
9.49829e+06
1.10822e+07
9.42106e+06
1.11539e+07
9.3671e+06
1.12033e+07
9.33766e+06
1.12301e+07
9.33337e+06
1.12343e+07
9.35427e+06
1.12169e+07
9.39989e+06
1.11795e+07
9.46927e+06
1.11244e+07
9.56105e+06
1.10545e+07
9.67338e+06
1.09741e+07
9.80389e+06
1.0889e+07
9.94959e+06
1.08082e+07
1.01072e+07
1.07474e+07
1.02755e+07
1.07416e+07
1.0469e+07
1.08985e+07
1.07817e+07
1.10879e+07
1.10843e+07
1.13514e+07
1.14279e+07
1.16522e+07
1.17369e+07
1.18663e+07
1.19019e+07
1.0301e+07
1.0144e+07
1.04566e+07
9.9901e+06
1.06064e+07
9.84355e+06
1.07461e+07
9.70839e+06
1.08717e+07
9.58821e+06
1.09799e+07
9.486e+06
1.10677e+07
9.40417e+06
1.11328e+07
9.34437e+06
1.11736e+07
9.30758e+06
1.11889e+07
9.29405e+06
1.11785e+07
9.30332e+06
1.11425e+07
9.33427e+06
1.10815e+07
9.38511e+06
1.09967e+07
9.45329e+06
1.08897e+07
9.53537e+06
1.07626e+07
9.62655e+06
1.06183e+07
9.7198e+06
1.04602e+07
9.80384e+06
1.02912e+07
9.85757e+06
1.01045e+07
9.83081e+06
9.83782e+06
9.56245e+06
9.53481e+06
9.26066e+06
9.15663e+06
8.87088e+06
8.72166e+06
8.50183e+06
8.39884e+06
8.31588e+06
1.03022e+07
1.01459e+07
1.04576e+07
9.99319e+06
1.06079e+07
9.84854e+06
1.07487e+07
9.71599e+06
1.08763e+07
9.59927e+06
1.09873e+07
9.50157e+06
1.10792e+07
9.4255e+06
1.11497e+07
9.37305e+06
1.11976e+07
9.34557e+06
1.12221e+07
9.34381e+06
1.12233e+07
9.36797e+06
1.12017e+07
9.41776e+06
1.11583e+07
9.49242e+06
1.10948e+07
9.59076e+06
1.10133e+07
9.71098e+06
1.09166e+07
9.8504e+06
1.08083e+07
1.00045e+07
1.06931e+07
1.01653e+07
1.05758e+07
1.03155e+07
1.04535e+07
1.04117e+07
9.98717e+06
1.05984e+07
1.06511e+07
1.07068e+07
1.08342e+07
1.09783e+07
1.11404e+07
1.12705e+07
1.13793e+07
1.14411e+07
1.0301e+07
1.01443e+07
1.04563e+07
9.99068e+06
1.06058e+07
9.84447e+06
1.0745e+07
9.70974e+06
1.08702e+07
9.5901e+06
1.09777e+07
9.48865e+06
1.10646e+07
9.40784e+06
1.11285e+07
9.34948e+06
1.11678e+07
9.31469e+06
1.11812e+07
9.30395e+06
1.11682e+07
9.31714e+06
1.11289e+07
9.35358e+06
1.10637e+07
9.41213e+06
1.09736e+07
9.49114e+06
1.08601e+07
9.58849e+06
1.07253e+07
9.70136e+06
1.05731e+07
9.826e+06
1.04101e+07
9.95751e+06
1.0251e+07
1.00914e+07
1.01345e+07
1.02359e+07
9.87078e+06
1.05444e+07
1.05866e+07
1.06625e+07
1.08063e+07
1.10274e+07
1.12294e+07
1.13979e+07
1.15284e+07
1.16059e+07
1.03021e+07
1.01461e+07
1.04573e+07
9.9938e+06
1.06072e+07
9.84955e+06
1.07476e+07
9.7175e+06
1.08748e+07
9.60141e+06
1.09852e+07
9.50452e+06
1.10762e+07
9.42951e+06
1.11455e+07
9.37843e+06
1.11918e+07
9.35276e+06
1.12141e+07
9.35336e+06
1.12121e+07
9.38061e+06
1.1186e+07
9.43443e+06
1.11362e+07
9.51438e+06
1.10637e+07
9.61961e+06
1.09693e+07
9.74879e+06
1.08542e+07
9.8997e+06
1.07195e+07
1.00683e+07
1.05666e+07
1.02467e+07
1.03967e+07
1.04184e+07
1.02104e+07
1.05504e+07
9.82988e+06
1.04553e+07
1.04772e+07
1.05404e+07
1.06914e+07
1.10811e+07
1.13364e+07
1.15467e+07
1.17125e+07
1.18141e+07
1.0301e+07
1.01446e+07
1.04561e+07
9.99121e+06
1.06052e+07
9.84532e+06
1.07441e+07
9.71098e+06
1.08688e+07
9.59187e+06
1.09757e+07
9.49113e+06
1.10619e+07
9.4113e+06
1.11248e+07
9.35432e+06
1.11627e+07
9.32147e+06
1.11744e+07
9.31348e+06
1.11591e+07
9.33056e+06
1.11168e+07
9.37254e+06
1.10476e+07
9.43897e+06
1.09522e+07
9.52929e+06
1.08317e+07
9.64293e+06
1.06877e+07
9.77943e+06
1.0523e+07
9.93855e+06
1.03431e+07
1.01204e+07
1.01592e+07
1.03255e+07
9.99407e+06
1.05542e+07
9.7617e+06
1.03252e+07
1.03158e+07
1.03219e+07
1.03346e+07
1.00311e+07
9.8023e+06
9.6463e+06
9.51881e+06
9.43633e+06
1.03021e+07
1.01463e+07
1.0457e+07
9.99431e+06
1.06066e+07
9.8504e+06
1.07467e+07
9.71877e+06
1.08734e+07
9.60321e+06
1.09833e+07
9.507e+06
1.10735e+07
9.43288e+06
1.11418e+07
9.38298e+06
1.11866e+07
9.35886e+06
1.12068e+07
9.36151e+06
1.12018e+07
9.39151e+06
1.11714e+07
9.44902e+06
1.11156e+07
9.53396e+06
1.10343e+07
9.64605e+06
1.09273e+07
9.78483e+06
1.0794e+07
9.9495e+06
1.0633e+07
1.01385e+07
1.04425e+07
1.03483e+07
1.02204e+07
1.05717e+07
9.96717e+06
1.07937e+07
9.71466e+06
1.01749e+07
1.01284e+07
1.00858e+07
1.00414e+07
1.01398e+07
9.91453e+06
9.67575e+06
9.43891e+06
9.27448e+06
1.0301e+07
1.01448e+07
1.04559e+07
9.99166e+06
1.06048e+07
9.84603e+06
1.07434e+07
9.71203e+06
1.08677e+07
9.59336e+06
1.09742e+07
9.49322e+06
1.10597e+07
9.41424e+06
1.11218e+07
9.35845e+06
1.11586e+07
9.32729e+06
1.11689e+07
9.3217e+06
1.11517e+07
9.34221e+06
1.11068e+07
9.38913e+06
1.10341e+07
9.46269e+06
1.09339e+07
9.56335e+06
1.08064e+07
9.69211e+06
1.06522e+07
9.85085e+06
1.04717e+07
1.00428e+07
1.02661e+07
1.0273e+07
1.00372e+07
1.05481e+07
9.7889e+06
1.08731e+07
9.64456e+06
1.00081e+07
9.92731e+06
9.84229e+06
9.75748e+06
1.02815e+07
1.00786e+07
9.75511e+06
9.34326e+06
9.08839e+06
1.0302e+07
1.01465e+07
1.04567e+07
9.99469e+06
1.06061e+07
9.85104e+06
1.0746e+07
9.71973e+06
1.08723e+07
9.60457e+06
1.09818e+07
9.50889e+06
1.10714e+07
9.43545e+06
1.11388e+07
9.38645e+06
1.11824e+07
9.36353e+06
1.12009e+07
9.3678e+06
1.11935e+07
9.39999e+06
1.11596e+07
9.46051e+06
1.10987e+07
9.54966e+06
1.10101e+07
9.66778e+06
1.08924e+07
9.81547e+06
1.07435e+07
9.99381e+06
1.05595e+07
1.02047e+07
1.03347e+07
1.04513e+07
1.00612e+07
1.07388e+07
9.72889e+06
1.10755e+07
9.58774e+06
9.83956e+06
9.7222e+06
9.59191e+06
9.45551e+06
1.04933e+07
1.03899e+07
1.00678e+07
9.14704e+06
8.84152e+06
1.03011e+07
1.0145e+07
1.04557e+07
9.99198e+06
1.06044e+07
9.84654e+06
1.07429e+07
9.71278e+06
1.08669e+07
9.59443e+06
1.09731e+07
9.49474e+06
1.10582e+07
9.41638e+06
1.11197e+07
9.36146e+06
1.11558e+07
9.33154e+06
1.1165e+07
9.32774e+06
1.11464e+07
9.35083e+06
1.10996e+07
9.40146e+06
1.10242e+07
9.48044e+06
1.09202e+07
9.58906e+06
1.0787e+07
9.72956e+06
1.06237e+07
9.90584e+06
1.04284e+07
1.01243e+07
1.0197e+07
1.0395e+07
9.92165e+06
1.07335e+07
9.58721e+06
1.11625e+07
9.52785e+06
9.67593e+06
9.52354e+06
9.34339e+06
9.1372e+06
1.07538e+07
1.08365e+07
1.09978e+07
1.00842e+07
1.08024e+07
1.0302e+07
1.01466e+07
1.04566e+07
9.99493e+06
1.06058e+07
9.85144e+06
1.07455e+07
9.72033e+06
1.08717e+07
9.60542e+06
1.09808e+07
9.51007e+06
1.107e+07
9.43706e+06
1.11369e+07
9.38864e+06
1.11797e+07
9.36648e+06
1.11971e+07
9.3718e+06
1.11881e+07
9.40541e+06
1.11519e+07
9.46792e+06
1.10876e+07
9.55993e+06
1.09941e+07
9.68225e+06
1.08692e+07
9.83637e+06
1.07096e+07
1.0025e+07
1.05094e+07
1.0253e+07
1.02597e+07
1.05294e+07
9.94594e+06
1.08708e+07
9.54475e+06
1.13079e+07
9.49618e+06
9.53294e+06
9.34792e+06
9.11884e+06
8.83634e+06
1.10023e+07
1.12248e+07
1.14994e+07
1.04037e+07
1.03409e+07
1.0301e+07
1.0145e+07
1.04556e+07
9.99211e+06
1.06043e+07
9.84675e+06
1.07426e+07
9.71309e+06
1.08665e+07
9.59488e+06
1.09724e+07
9.49537e+06
1.10572e+07
9.41729e+06
1.11184e+07
9.36277e+06
1.1154e+07
9.33345e+06
1.11626e+07
9.33052e+06
1.11431e+07
9.35489e+06
1.10952e+07
9.40744e+06
1.10182e+07
9.48926e+06
1.09119e+07
9.60214e+06
1.07752e+07
9.74906e+06
1.06065e+07
9.93512e+06
1.04021e+07
1.01687e+07
1.01545e+07
1.04635e+07
9.84953e+06
1.08421e+07
9.45916e+06
1.13427e+07
9.48421e+06
9.42105e+06
9.21372e+06
8.94754e+06
8.60325e+06
1.11972e+07
1.15219e+07
1.19338e+07
9.42393e+06
9.26117e+06
1.0302e+07
1.01467e+07
1.04565e+07
9.99505e+06
1.06058e+07
9.85163e+06
1.07454e+07
9.72062e+06
1.08715e+07
9.60584e+06
1.09806e+07
9.51064e+06
1.10697e+07
9.43784e+06
1.11364e+07
9.38969e+06
1.1179e+07
9.36788e+06
1.11961e+07
9.37365e+06
1.11866e+07
9.40787e+06
1.11497e+07
9.47121e+06
1.10844e+07
9.56436e+06
1.09892e+07
9.68833e+06
1.08618e+07
9.84494e+06
1.06983e+07
1.00375e+07
1.04921e+07
1.02721e+07
1.02328e+07
1.05602e+07
9.90305e+06
1.09231e+07
9.47329e+06
1.14013e+07
9.51768e+06
9.35049e+06
9.13506e+06
8.85488e+06
8.48445e+06
1.13101e+07
1.16769e+07
1.21566e+07
8.88478e+06
8.59155e+06
1.0301e+07
1.0145e+07
1.04556e+07
9.99211e+06
1.06043e+07
9.84675e+06
1.07426e+07
9.71309e+06
1.08665e+07
9.59488e+06
1.09724e+07
9.49537e+06
1.10572e+07
9.41729e+06
1.11184e+07
9.36277e+06
1.1154e+07
9.33345e+06
1.11626e+07
9.33052e+06
1.11431e+07
9.35489e+06
1.10952e+07
9.40744e+06
1.10182e+07
9.48926e+06
1.09119e+07
9.60214e+06
1.07752e+07
9.74906e+06
1.06065e+07
9.93512e+06
1.04021e+07
1.01687e+07
1.01545e+07
1.04635e+07
9.84953e+06
1.08421e+07
9.45916e+06
1.13427e+07
9.58102e+06
9.32756e+06
9.12351e+06
8.85909e+06
8.51095e+06
1.13237e+07
1.16517e+07
1.20483e+07
8.69504e+06
8.54667e+06
1.0302e+07
1.01466e+07
1.04566e+07
9.99493e+06
1.06058e+07
9.85144e+06
1.07455e+07
9.72033e+06
1.08717e+07
9.60542e+06
1.09808e+07
9.51007e+06
1.107e+07
9.43706e+06
1.11369e+07
9.38864e+06
1.11797e+07
9.36648e+06
1.11971e+07
9.3718e+06
1.11881e+07
9.40541e+06
1.11519e+07
9.46792e+06
1.10876e+07
9.55993e+06
1.09941e+07
9.68225e+06
1.08692e+07
9.83637e+06
1.07096e+07
1.0025e+07
1.05094e+07
1.0253e+07
1.02597e+07
1.05294e+07
9.94594e+06
1.08708e+07
9.54475e+06
1.13079e+07
9.68245e+06
9.35306e+06
9.17574e+06
8.95381e+06
8.67193e+06
1.12556e+07
1.14921e+07
1.16997e+07
8.79728e+06
8.98728e+06
1.03011e+07
1.0145e+07
1.04557e+07
9.99198e+06
1.06044e+07
9.84654e+06
1.07429e+07
9.71278e+06
1.08669e+07
9.59443e+06
1.09731e+07
9.49474e+06
1.10582e+07
9.41638e+06
1.11197e+07
9.36146e+06
1.11558e+07
9.33154e+06
1.1165e+07
9.32774e+06
1.11464e+07
9.35083e+06
1.10996e+07
9.40146e+06
1.10242e+07
9.48044e+06
1.09202e+07
9.58906e+06
1.0787e+07
9.72956e+06
1.06237e+07
9.90584e+06
1.04284e+07
1.01243e+07
1.0197e+07
1.0395e+07
9.92165e+06
1.07335e+07
9.58721e+06
1.11625e+07
9.80101e+06
9.41171e+06
9.27284e+06
9.11053e+06
8.92161e+06
1.11528e+07
1.13089e+07
1.13444e+07
8.96623e+06
9.13819e+06
1.0302e+07
1.01465e+07
1.04567e+07
9.99469e+06
1.06061e+07
9.85104e+06
1.0746e+07
9.71973e+06
1.08723e+07
9.60457e+06
1.09818e+07
9.50889e+06
1.10714e+07
9.43545e+06
1.11388e+07
9.38645e+06
1.11824e+07
9.36353e+06
1.12009e+07
9.3678e+06
1.11935e+07
9.39999e+06
1.11596e+07
9.46051e+06
1.10987e+07
9.54966e+06
1.10101e+07
9.66778e+06
1.08924e+07
9.81547e+06
1.07435e+07
9.99381e+06
1.05595e+07
1.02047e+07
1.03347e+07
1.04513e+07
1.00612e+07
1.07388e+07
9.72889e+06
1.10755e+07
9.9441e+06
9.49286e+06
9.39451e+06
9.29661e+06
9.20721e+06
1.10459e+07
1.11885e+07
1.12927e+07
1.15224e+07
1.17284e+07
1.0301e+07
1.01448e+07
1.04559e+07
9.99166e+06
1.06048e+07
9.84603e+06
1.07434e+07
9.71203e+06
1.08677e+07
9.59336e+06
1.09742e+07
9.49322e+06
1.10597e+07
9.41424e+06
1.11218e+07
9.35845e+06
1.11586e+07
9.32729e+06
1.11689e+07
9.3217e+06
1.11517e+07
9.34221e+06
1.11068e+07
9.38913e+06
1.10341e+07
9.46269e+06
1.09339e+07
9.56335e+06
1.08064e+07
9.69211e+06
1.06522e+07
9.85085e+06
1.04717e+07
1.00428e+07
1.02661e+07
1.0273e+07
1.00372e+07
1.05481e+07
9.7889e+06
1.08731e+07
1.0081e+07
9.57798e+06
9.51709e+06
9.47655e+06
9.47529e+06
1.09343e+07
1.10932e+07
1.12536e+07
1.14302e+07
1.15619e+07
1.03021e+07
1.01463e+07
1.0457e+07
9.99431e+06
1.06066e+07
9.8504e+06
1.07467e+07
9.71877e+06
1.08734e+07
9.60321e+06
1.09833e+07
9.507e+06
1.10735e+07
9.43288e+06
1.11418e+07
9.38298e+06
1.11866e+07
9.35886e+06
1.12068e+07
9.36151e+06
1.12018e+07
9.39151e+06
1.11714e+07
9.44902e+06
1.11156e+07
9.53396e+06
1.10343e+07
9.64605e+06
1.09273e+07
9.78483e+06
1.0794e+07
9.9495e+06
1.0633e+07
1.01385e+07
1.04425e+07
1.03483e+07
1.02204e+07
1.05717e+07
9.96717e+06
1.07937e+07
1.02277e+07
9.65828e+06
9.62094e+06
9.61944e+06
9.68691e+06
1.08093e+07
1.09795e+07
1.11457e+07
1.13018e+07
1.14108e+07
1.0301e+07
1.01446e+07
1.04561e+07
9.99121e+06
1.06052e+07
9.84532e+06
1.07441e+07
9.71098e+06
1.08688e+07
9.59187e+06
1.09757e+07
9.49113e+06
1.10619e+07
9.4113e+06
1.11248e+07
9.35432e+06
1.11627e+07
9.32147e+06
1.11744e+07
9.31348e+06
1.11591e+07
9.33056e+06
1.11168e+07
9.37254e+06
1.10476e+07
9.43897e+06
1.09522e+07
9.52929e+06
1.08317e+07
9.64293e+06
1.06877e+07
9.77943e+06
1.0523e+07
9.93855e+06
1.03431e+07
1.01204e+07
1.01592e+07
1.03255e+07
9.99407e+06
1.05542e+07
1.03436e+07
9.72114e+06
9.69115e+06
9.69628e+06
9.79287e+06
1.06737e+07
1.0854e+07
1.10178e+07
1.11654e+07
1.12705e+07
1.03021e+07
1.01461e+07
1.04573e+07
9.9938e+06
1.06072e+07
9.84955e+06
1.07476e+07
9.7175e+06
1.08748e+07
9.60141e+06
1.09852e+07
9.50452e+06
1.10762e+07
9.42951e+06
1.11455e+07
9.37843e+06
1.11918e+07
9.35276e+06
1.12141e+07
9.35336e+06
1.12121e+07
9.38061e+06
1.1186e+07
9.43443e+06
1.11362e+07
9.51438e+06
1.10637e+07
9.61961e+06
1.09693e+07
9.74879e+06
1.08542e+07
9.8997e+06
1.07195e+07
1.00683e+07
1.05666e+07
1.02467e+07
1.03967e+07
1.04184e+07
1.02104e+07
1.05504e+07
1.04635e+07
9.77519e+06
9.72893e+06
9.68617e+06
9.62788e+06
9.42683e+06
9.19033e+06
8.96813e+06
8.78433e+06
8.66906e+06
1.0301e+07
1.01443e+07
1.04563e+07
9.99068e+06
1.06058e+07
9.84447e+06
1.0745e+07
9.70974e+06
1.08702e+07
9.5901e+06
1.09777e+07
9.48865e+06
1.10646e+07
9.40784e+06
1.11285e+07
9.34948e+06
1.11678e+07
9.31469e+06
1.11812e+07
9.30395e+06
1.11682e+07
9.31714e+06
1.11289e+07
9.35358e+06
1.10637e+07
9.41213e+06
1.09736e+07
9.49114e+06
1.08601e+07
9.58849e+06
1.07253e+07
9.70136e+06
1.05731e+07
9.826e+06
1.04101e+07
9.95751e+06
1.0251e+07
1.00914e+07
1.01345e+07
1.02359e+07
1.05258e+07
9.8231e+06
9.76556e+06
9.69367e+06
9.6039e+06
9.45869e+06
9.2952e+06
9.13819e+06
9.01338e+06
8.93818e+06
1.03022e+07
1.01459e+07
1.04576e+07
9.99319e+06
1.06079e+07
9.84854e+06
1.07487e+07
9.71599e+06
1.08763e+07
9.59927e+06
1.09873e+07
9.50157e+06
1.10792e+07
9.4255e+06
1.11497e+07
9.37305e+06
1.11976e+07
9.34557e+06
1.12221e+07
9.34381e+06
1.12233e+07
9.36797e+06
1.12017e+07
9.41776e+06
1.11583e+07
9.49242e+06
1.10948e+07
9.59076e+06
1.10133e+07
9.71098e+06
1.09166e+07
9.8504e+06
1.08083e+07
1.00045e+07
1.06931e+07
1.01653e+07
1.05758e+07
1.03155e+07
1.04535e+07
1.04117e+07
1.06264e+07
9.88303e+06
9.81893e+06
9.72224e+06
9.6387e+06
9.517e+06
9.40554e+06
9.29172e+06
9.21152e+06
9.16311e+06
1.0301e+07
1.0144e+07
1.04566e+07
9.9901e+06
1.06064e+07
9.84355e+06
1.07461e+07
9.70839e+06
1.08717e+07
9.58821e+06
1.09799e+07
9.486e+06
1.10677e+07
9.40417e+06
1.11328e+07
9.34437e+06
1.11736e+07
9.30758e+06
1.11889e+07
9.29405e+06
1.11785e+07
9.30332e+06
1.11425e+07
9.33427e+06
1.10815e+07
9.38511e+06
1.09967e+07
9.45329e+06
1.08897e+07
9.53537e+06
1.07626e+07
9.62655e+06
1.06183e+07
9.7198e+06
1.04602e+07
9.80384e+06
1.02912e+07
9.85757e+06
1.01045e+07
9.83081e+06
9.83782e+06
9.56245e+06
9.53481e+06
9.26066e+06
9.15663e+06
8.87088e+06
8.72166e+06
8.50183e+06
8.39884e+06
8.31588e+06
1.03022e+07
1.01456e+07
1.0458e+07
9.99251e+06
1.06086e+07
9.84741e+06
1.07498e+07
9.71431e+06
1.08779e+07
9.59689e+06
1.09895e+07
9.49829e+06
1.10822e+07
9.42106e+06
1.11539e+07
9.3671e+06
1.12033e+07
9.33766e+06
1.12301e+07
9.33337e+06
1.12343e+07
9.35427e+06
1.12169e+07
9.39989e+06
1.11795e+07
9.46927e+06
1.11244e+07
9.56105e+06
1.10545e+07
9.67338e+06
1.09741e+07
9.80389e+06
1.0889e+07
9.94959e+06
1.08082e+07
1.01072e+07
1.07474e+07
1.02755e+07
1.07416e+07
1.0469e+07
1.08985e+07
1.07817e+07
1.10879e+07
1.10843e+07
1.13514e+07
1.14279e+07
1.16522e+07
1.17369e+07
1.18663e+07
1.19019e+07
1.0301e+07
1.01438e+07
1.0457e+07
9.98953e+06
1.06071e+07
9.84264e+06
1.07472e+07
9.70707e+06
1.08735e+07
9.58634e+06
1.09824e+07
9.48342e+06
1.10711e+07
9.4006e+06
1.11375e+07
9.33946e+06
1.11799e+07
9.3008e+06
1.11973e+07
9.28469e+06
1.11896e+07
9.2904e+06
1.11571e+07
9.31645e+06
1.11004e+07
9.36058e+06
1.10209e+07
9.41961e+06
1.09201e+07
9.48928e+06
1.07999e+07
9.56373e+06
1.06624e+07
9.63471e+06
1.05089e+07
9.68989e+06
1.03388e+07
9.70992e+06
1.01459e+07
9.66401e+06
9.91413e+06
9.51423e+06
9.65303e+06
9.31484e+06
9.36473e+06
9.08616e+06
9.07887e+06
8.88972e+06
8.87096e+06
8.8034e+06
1.03022e+07
1.01452e+07
1.04583e+07
9.99178e+06
1.06092e+07
9.84621e+06
1.07508e+07
9.71254e+06
1.08794e+07
9.59438e+06
1.09916e+07
9.49484e+06
1.1085e+07
9.41638e+06
1.11577e+07
9.36085e+06
1.12086e+07
9.32938e+06
1.12372e+07
9.32249e+06
1.12441e+07
9.34008e+06
1.12304e+07
9.38153e+06
1.11979e+07
9.44576e+06
1.11495e+07
9.53131e+06
1.10887e+07
9.63642e+06
1.10205e+07
9.75915e+06
1.09516e+07
9.89764e+06
1.08914e+07
1.00509e+07
1.08546e+07
1.02211e+07
1.08632e+07
1.04174e+07
1.09448e+07
1.06578e+07
1.10684e+07
1.09075e+07
1.12262e+07
1.11576e+07
1.13865e+07
1.13679e+07
1.14896e+07
1.14876e+07
1.03011e+07
1.01435e+07
1.04573e+07
9.98901e+06
1.06078e+07
9.84181e+06
1.07484e+07
9.70586e+06
1.08752e+07
9.58467e+06
1.09849e+07
9.48112e+06
1.10747e+07
9.39745e+06
1.11423e+07
9.33515e+06
1.11864e+07
9.29492e+06
1.12061e+07
9.27665e+06
1.12012e+07
9.27945e+06
1.11721e+07
9.30161e+06
1.11198e+07
9.34056e+06
1.10456e+07
9.39284e+06
1.09511e+07
9.45387e+06
1.0838e+07
9.51767e+06
1.0708e+07
9.5764e+06
1.0562e+07
9.61964e+06
1.03999e+07
9.63397e+06
1.02193e+07
9.60417e+06
1.00174e+07
9.52135e+06
9.79981e+06
9.40578e+06
9.57662e+06
9.28111e+06
9.37118e+06
9.18468e+06
9.22112e+06
9.15701e+06
1.03022e+07
1.01449e+07
1.04586e+07
9.99105e+06
1.06098e+07
9.84501e+06
1.07518e+07
9.71075e+06
1.08807e+07
9.59185e+06
1.09934e+07
9.49136e+06
1.10875e+07
9.41168e+06
1.1161e+07
9.35456e+06
1.12129e+07
9.32107e+06
1.12431e+07
9.31159e+06
1.12519e+07
9.32591e+06
1.12409e+07
9.36326e+06
1.1212e+07
9.42246e+06
1.11683e+07
9.50197e+06
1.11135e+07
9.60005e+06
1.10527e+07
9.71492e+06
1.09922e+07
9.84512e+06
1.09403e+07
9.98994e+06
1.09074e+07
1.01502e+07
1.09054e+07
1.03286e+07
1.09424e+07
1.05259e+07
1.10083e+07
1.07276e+07
1.10904e+07
1.09192e+07
1.11658e+07
1.1077e+07
1.12029e+07
1.11758e+07
1.03012e+07
1.01433e+07
1.04577e+07
9.98858e+06
1.06085e+07
9.84112e+06
1.07495e+07
9.70488e+06
1.08769e+07
9.5833e+06
1.09874e+07
9.47927e+06
1.10781e+07
9.39495e+06
1.11471e+07
9.33177e+06
1.11929e+07
9.29036e+06
1.12148e+07
9.27052e+06
1.12127e+07
9.27125e+06
1.11872e+07
9.29072e+06
1.11393e+07
9.32628e+06
1.10705e+07
9.37441e+06
1.09824e+07
9.43063e+06
1.08769e+07
9.48942e+06
1.07556e+07
9.54402e+06
1.06198e+07
9.5865e+06
1.04704e+07
9.60826e+06
1.03078e+07
9.60202e+06
1.01333e+07
9.56643e+06
9.95229e+06
9.51219e+06
9.77456e+06
9.45639e+06
9.61587e+06
9.42178e+06
9.49621e+06
9.43079e+06
1.03021e+07
1.01445e+07
1.04588e+07
9.99033e+06
1.06103e+07
9.84385e+06
1.07525e+07
9.70903e+06
1.08817e+07
9.58942e+06
1.09948e+07
9.488e+06
1.10893e+07
9.40714e+06
1.11633e+07
9.34849e+06
1.1216e+07
9.31304e+06
1.12471e+07
9.30105e+06
1.12572e+07
9.3122e+06
1.12478e+07
9.34559e+06
1.1221e+07
9.39989e+06
1.11797e+07
9.47345e+06
1.11278e+07
9.56443e+06
1.107e+07
9.67101e+06
1.10117e+07
9.79156e+06
1.09596e+07
9.92489e+06
1.09207e+07
1.00703e+07
1.09016e+07
1.02271e+07
1.0905e+07
1.03923e+07
1.09257e+07
1.0557e+07
1.09541e+07
1.07102e+07
1.09751e+07
1.08377e+07
1.09707e+07
1.09265e+07
1.03013e+07
1.01432e+07
1.0458e+07
9.98828e+06
1.06092e+07
9.84063e+06
1.07506e+07
9.70418e+06
1.08786e+07
9.58236e+06
1.09898e+07
9.47801e+06
1.10815e+07
9.39328e+06
1.11517e+07
9.32957e+06
1.11991e+07
9.28744e+06
1.12232e+07
9.26669e+06
1.12238e+07
9.26626e+06
1.12019e+07
9.28432e+06
1.11584e+07
9.31826e+06
1.10949e+07
9.36471e+06
1.10135e+07
9.41951e+06
1.09159e+07
9.47778e+06
1.08043e+07
9.53399e+06
1.06803e+07
9.58222e+06
1.05456e+07
9.61693e+06
1.04019e+07
9.63441e+06
1.0252e+07
9.63512e+06
1.01007e+07
9.62558e+06
9.95542e+06
9.61681e+06
9.82612e+06
9.62255e+06
9.72369e+06
9.65568e+06
1.0302e+07
1.01442e+07
1.0459e+07
9.98967e+06
1.06106e+07
9.84279e+06
1.0753e+07
9.70746e+06
1.08824e+07
9.58718e+06
1.09957e+07
9.48491e+06
1.10904e+07
9.40295e+06
1.11647e+07
9.34288e+06
1.12177e+07
9.30558e+06
1.12492e+07
9.29125e+06
1.12597e+07
9.29941e+06
1.12508e+07
9.32903e+06
1.12245e+07
9.37862e+06
1.11838e+07
9.44635e+06
1.1132e+07
9.53021e+06
1.10735e+07
9.62814e+06
1.1013e+07
9.73818e+06
1.09555e+07
9.85858e+06
1.09061e+07
9.98768e+06
1.08686e+07
1.01235e+07
1.08443e+07
1.02624e+07
1.08302e+07
1.03988e+07
1.08199e+07
1.05251e+07
1.08041e+07
1.06333e+07
1.07724e+07
1.07165e+07
1.03014e+07
1.01432e+07
1.04583e+07
9.98813e+06
1.06098e+07
9.84038e+06
1.07516e+07
9.70384e+06
1.088e+07
9.58191e+06
1.09919e+07
9.47744e+06
1.10845e+07
9.39257e+06
1.11559e+07
9.32867e+06
1.12049e+07
9.28632e+06
1.12309e+07
9.26531e+06
1.12342e+07
9.26463e+06
1.12156e+07
9.2825e+06
1.11763e+07
9.31644e+06
1.11182e+07
9.36333e+06
1.10434e+07
9.41943e+06
1.0954e+07
9.48052e+06
1.08524e+07
9.54208e+06
1.07408e+07
9.59962e+06
1.06213e+07
9.64929e+06
1.04962e+07
9.68882e+06
1.03683e+07
9.71865e+06
1.02415e+07
9.74261e+06
1.01207e+07
9.76727e+06
1.00118e+07
9.80066e+06
9.92046e+06
9.85021e+06
1.03019e+07
1.01439e+07
1.0459e+07
9.98909e+06
1.06108e+07
9.84187e+06
1.07533e+07
9.7061e+06
1.08827e+07
9.58525e+06
1.0996e+07
9.48222e+06
1.10907e+07
9.39928e+06
1.11649e+07
9.33794e+06
1.12178e+07
9.299e+06
1.12491e+07
9.28254e+06
1.12594e+07
9.28797e+06
1.125e+07
9.3141e+06
1.12229e+07
9.35927e+06
1.11809e+07
9.42142e+06
1.11271e+07
9.49828e+06
1.10652e+07
9.5875e+06
1.09993e+07
9.68674e+06
1.09334e+07
9.79377e+06
1.08713e+07
9.90647e+06
1.08158e+07
1.00225e+07
1.07678e+07
1.0139e+07
1.07261e+07
1.02522e+07
1.06869e+07
1.03579e+07
1.0645e+07
1.04518e+07
1.05946e+07
1.0531e+07
1.03015e+07
1.01432e+07
1.04586e+07
9.98814e+06
1.06103e+07
9.84038e+06
1.07524e+07
9.70386e+06
1.08812e+07
9.58199e+06
1.09936e+07
9.4776e+06
1.1087e+07
9.39285e+06
1.11594e+07
9.32912e+06
1.12098e+07
9.28703e+06
1.12377e+07
9.2664e+06
1.12434e+07
9.26628e+06
1.12278e+07
9.28503e+06
1.11925e+07
9.32036e+06
1.11395e+07
9.36941e+06
1.1071e+07
9.42886e+06
1.09897e+07
9.49511e+06
1.08981e+07
9.56438e+06
1.07988e+07
9.63311e+06
1.06943e+07
9.6983e+06
1.05869e+07
9.75808e+06
1.04792e+07
9.81226e+06
1.03737e+07
9.86254e+06
1.02731e+07
9.91223e+06
1.01804e+07
9.96554e+06