/*--------------------------------*- C++ -*----------------------------------*\
| =========                 |                                                 |
| \\      /  F ield         | foam-extend: Open Source CFD                    |
|  \\    /   O peration     | Version:     4.0                                |
|   \\  /    A nd           | Web:         http://www.foam-extend.org         |
|    \\/     M anipulation  |                                                 |
\*---------------------------------------------------------------------------*/
FoamFile
{
    version     2.0;
    format      ascii;
    class       surfaceScalarField;
    location    "5e-05";
    object      phi;
}
// * * * * * * * * * * * * * * * * * * * * * * * * * * * * * * * * * * * * * //

dimensions      [0 3 -1 0 0 0 0];

internalField   nonuniform List<scalar> 
57362
(
1.46738e-07
1.3928e-10
1.46605e-07
1.41246e-10
1.46446e-07
1.45945e-10
1.46312e-07
1.51972e-10
1.46127e-07
1.61662e-10
1.45983e-07
1.7209e-10
1.45763e-07
1.87367e-10
1.45598e-07
2.02784e-10
1.45331e-07
2.24584e-10
1.45131e-07
2.45851e-10
1.44806e-07
2.75493e-10
1.44555e-07
3.0378e-10
1.44156e-07
3.43028e-10
1.43835e-07
3.79859e-10
1.43343e-07
4.31001e-10
1.42928e-07
4.78304e-10
1.42319e-07
5.44232e-10
1.41781e-07
6.04395e-10
1.41025e-07
6.88692e-10
1.40328e-07
7.64613e-10
1.39389e-07
8.7162e-10
1.3849e-07
9.66736e-10
1.37322e-07
1.10157e-09
1.36168e-07
1.21985e-09
1.34715e-07
1.38835e-09
1.33244e-07
1.53421e-09
1.3144e-07
1.74269e-09
1.29579e-07
1.92082e-09
1.27347e-07
2.17555e-09
1.25011e-07
2.39054e-09
1.22263e-07
2.69693e-09
1.1936e-07
2.95268e-09
1.16e-07
3.31387e-09
1.12432e-07
3.61268e-09
1.08364e-07
4.02769e-09
1.04035e-07
4.36886e-09
9.91698e-08
4.8304e-09
9.39951e-08
5.20842e-09
8.8266e-08
5.70082e-09
8.21913e-08
6.10306e-09
7.55677e-08
6.60132e-09
6.8585e-08
7.00591e-09
6.10919e-08
7.47659e-09
5.32583e-08
7.85192e-09
4.49912e-08
8.25605e-09
3.64406e-08
8.56411e-09
2.75728e-08
8.86209e-09
1.85161e-08
9.06557e-09
9.29125e-09
9.22415e-09
9.29539e-09
1.46725e-07
2.76447e-10
1.46594e-07
2.80361e-10
1.46437e-07
2.89688e-10
1.46306e-07
3.01663e-10
1.46123e-07
3.20896e-10
1.45982e-07
3.41612e-10
1.45764e-07
3.71939e-10
1.45602e-07
4.02569e-10
1.45339e-07
4.45849e-10
1.45142e-07
4.88107e-10
1.44821e-07
5.46963e-10
1.44575e-07
6.0318e-10
1.44181e-07
6.81126e-10
1.43865e-07
7.54335e-10
1.43379e-07
8.55926e-10
1.4297e-07
9.49973e-10
1.42368e-07
1.08098e-09
1.41838e-07
1.20063e-09
1.41091e-07
1.36821e-09
1.40404e-07
1.51924e-09
1.39475e-07
1.73208e-09
1.38587e-07
1.92138e-09
1.37432e-07
2.18975e-09
1.36292e-07
2.42525e-09
1.34855e-07
2.76091e-09
1.334e-07
3.05148e-09
1.31613e-07
3.46717e-09
1.2977e-07
3.82223e-09
1.27557e-07
4.33077e-09
1.25241e-07
4.75961e-09
1.22512e-07
5.37209e-09
1.1963e-07
5.88267e-09
1.1629e-07
6.60574e-09
1.12742e-07
7.20291e-09
1.08691e-07
8.03492e-09
1.04377e-07
8.7177e-09
9.95249e-08
9.64415e-09
9.436e-08
1.04021e-08
8.86355e-08
1.13915e-08
8.25607e-08
1.22001e-08
7.59306e-08
1.32022e-08
6.89345e-08
1.40176e-08
6.14208e-08
1.49654e-08
5.35584e-08
1.57234e-08
4.52555e-08
1.65382e-08
3.66615e-08
1.71612e-08
2.77445e-08
1.77624e-08
1.86334e-08
1.81742e-08
9.35083e-09
1.84944e-08
1.86386e-08
1.46744e-07
4.0952e-10
1.46617e-07
4.15321e-10
1.46465e-07
4.2915e-10
1.46338e-07
4.46889e-10
1.4616e-07
4.75405e-10
1.46024e-07
5.06095e-10
1.45812e-07
5.51063e-10
1.45655e-07
5.96445e-10
1.45399e-07
6.60628e-10
1.4521e-07
7.23246e-10
1.44896e-07
8.10545e-10
1.44659e-07
8.93861e-10
1.44275e-07
1.00951e-09
1.4397e-07
1.11803e-09
1.43496e-07
1.26881e-09
1.43101e-07
1.40828e-09
1.42515e-07
1.60279e-09
1.42001e-07
1.7803e-09
1.41274e-07
2.02924e-09
1.40607e-07
2.25345e-09
1.39703e-07
2.56983e-09
1.38841e-07
2.85104e-09
1.37715e-07
3.25031e-09
1.36606e-07
3.60049e-09
1.35203e-07
4.10038e-09
1.33785e-07
4.53294e-09
1.3204e-07
5.15287e-09
1.3024e-07
5.68221e-09
1.28074e-07
6.44189e-09
1.25808e-07
7.08234e-09
1.23131e-07
7.99927e-09
1.20302e-07
8.76343e-09
1.17016e-07
9.84885e-09
1.13521e-07
1.07449e-08
1.09521e-07
1.19979e-08
1.05256e-07
1.30256e-08
1.00444e-07
1.44263e-08
9.53128e-08
1.55713e-08
8.96086e-08
1.70735e-08
8.35426e-08
1.83001e-08
7.69018e-08
1.9828e-08
6.98788e-08
2.1071e-08
6.23152e-08
2.25213e-08
5.43828e-08
2.36829e-08
4.59862e-08
2.4934e-08
3.72778e-08
2.58933e-08
2.82262e-08
2.68196e-08
1.89644e-08
2.74561e-08
9.51937e-09
2.79506e-08
2.8174e-08
1.4675e-07
5.36447e-10
1.4663e-07
5.44056e-10
1.46483e-07
5.62177e-10
1.46363e-07
5.85443e-10
1.46192e-07
6.22815e-10
1.46064e-07
6.6307e-10
1.45859e-07
7.22011e-10
1.45712e-07
7.81547e-10
1.45465e-07
8.65691e-10
1.45286e-07
9.47859e-10
1.44985e-07
1.06234e-09
1.4476e-07
1.17171e-09
1.44389e-07
1.32343e-09
1.441e-07
1.46594e-09
1.43644e-07
1.66385e-09
1.43267e-07
1.84709e-09
1.42703e-07
2.10258e-09
1.42212e-07
2.33596e-09
1.41511e-07
2.66323e-09
1.40873e-07
2.95823e-09
1.4e-07
3.37463e-09
1.39172e-07
3.74498e-09
1.38084e-07
4.27122e-09
1.37016e-07
4.7329e-09
1.35658e-07
5.39292e-09
1.34288e-07
5.96401e-09
1.32594e-07
6.7843e-09
1.30849e-07
7.48428e-09
1.2874e-07
8.49214e-09
1.26533e-07
9.34068e-09
1.23916e-07
1.0561e-08
1.21149e-07
1.15757e-08
1.17922e-07
1.30254e-08
1.14487e-07
1.42187e-08
1.1054e-07
1.58988e-08
1.06325e-07
1.72722e-08
1.01551e-07
1.91576e-08
9.64513e-08
2.06949e-08
9.0762e-08
2.27242e-08
8.46967e-08
2.43809e-08
7.80375e-08
2.64517e-08
7.09738e-08
2.81421e-08
6.33473e-08
3.0115e-08
5.53258e-08
3.17038e-08
4.68175e-08
3.3412e-08
3.79732e-08
3.47297e-08
2.87671e-08
3.59981e-08
1.9334e-08
3.68748e-08
9.70717e-09
3.75532e-08
3.78612e-08
1.46743e-07
6.55381e-10
1.46631e-07
6.64681e-10
1.46493e-07
6.86845e-10
1.46382e-07
7.1528e-10
1.4622e-07
7.60994e-10
1.46101e-07
8.10197e-10
1.45908e-07
8.82308e-10
1.45772e-07
9.55089e-10
1.45538e-07
1.05806e-09
1.45373e-07
1.15854e-09
1.45087e-07
1.29869e-09
1.4488e-07
1.43246e-09
1.44529e-07
1.61828e-09
1.44261e-07
1.79269e-09
1.43829e-07
2.03522e-09
1.4348e-07
2.2596e-09
1.42946e-07
2.57293e-09
1.42489e-07
2.85894e-09
1.41826e-07
3.26068e-09
1.41229e-07
3.62257e-09
1.40403e-07
4.13435e-09
1.39627e-07
4.58923e-09
1.38596e-07
5.23701e-09
1.37591e-07
5.80498e-09
1.36302e-07
6.61903e-09
1.35007e-07
7.32296e-09
1.33397e-07
8.33715e-09
1.3174e-07
9.20203e-09
1.29727e-07
1.0452e-08
1.27621e-07
1.15035e-08
1.25112e-07
1.30227e-08
1.22456e-07
1.42847e-08
1.19343e-07
1.6098e-08
1.16022e-07
1.75885e-08
1.12187e-07
1.9702e-08
1.08077e-07
2.14265e-08
1.03396e-07
2.3814e-08
9.83758e-08
2.57567e-08
9.27391e-08
2.83451e-08
8.67039e-08
3.0455e-08
8.00337e-08
3.31148e-08
7.29257e-08
3.52871e-08
6.52058e-08
3.78366e-08
5.70477e-08
3.98975e-08
4.83512e-08
4.21184e-08
3.92722e-08
4.38427e-08
2.97862e-08
4.55016e-08
2.00362e-08
4.66567e-08
1.00654e-08
4.75478e-08
4.79552e-08
1.46768e-07
7.64475e-10
1.46666e-07
7.75339e-10
1.46538e-07
8.01211e-10
1.46437e-07
8.3443e-10
1.46287e-07
8.87797e-10
1.4618e-07
9.45289e-10
1.46e-07
1.02949e-09
1.45878e-07
1.11455e-09
1.45659e-07
1.23483e-09
1.45511e-07
1.3523e-09
1.45244e-07
1.51608e-09
1.45056e-07
1.67256e-09
1.44729e-07
1.88982e-09
1.44485e-07
2.09396e-09
1.44082e-07
2.37776e-09
1.43763e-07
2.6406e-09
1.43263e-07
3.00761e-09
1.42844e-07
3.34295e-09
1.42224e-07
3.81413e-09
1.41673e-07
4.23895e-09
1.409e-07
4.84018e-09
1.40179e-07
5.37495e-09
1.39211e-07
6.13753e-09
1.38273e-07
6.80646e-09
1.37059e-07
7.76729e-09
1.35844e-07
8.59814e-09
1.34319e-07
9.79912e-09
1.32754e-07
1.08226e-08
1.30837e-07
1.23088e-08
1.28833e-07
1.3557e-08
1.26428e-07
1.53722e-08
1.2388e-07
1.68757e-08
1.20871e-07
1.9055e-08
1.17657e-07
2.08385e-08
1.13915e-07
2.33952e-08
1.09899e-07
2.54701e-08
1.0529e-07
2.83779e-08
1.00332e-07
3.07325e-08
9.473e-08
3.39047e-08
8.87065e-08
3.64869e-08
8.2016e-08
3.97643e-08
7.48468e-08
4.24551e-08
6.7026e-08
4.5617e-08
5.87174e-08
4.81953e-08
4.98283e-08
5.09677e-08
4.05111e-08
5.31401e-08
3.07516e-08
5.52221e-08
2.06968e-08
5.66841e-08
1.04013e-08
5.78064e-08
5.83233e-08
1.4678e-07
8.62176e-10
1.46689e-07
8.74436e-10
1.46573e-07
9.03656e-10
1.46485e-07
9.41146e-10
1.46348e-07
1.00143e-09
1.46255e-07
1.06632e-09
1.4609e-07
1.16146e-09
1.45985e-07
1.2575e-09
1.45784e-07
1.39344e-09
1.45657e-07
1.52612e-09
1.45412e-07
1.71131e-09
1.4525e-07
1.88814e-09
1.4495e-07
2.13397e-09
1.44738e-07
2.3648e-09
1.44369e-07
2.68619e-09
1.4409e-07
2.98363e-09
1.43634e-07
3.39969e-09
1.43263e-07
3.77959e-09
1.42698e-07
4.31448e-09
1.42208e-07
4.79641e-09
1.41503e-07
5.48009e-09
1.40857e-07
6.08783e-09
1.39974e-07
6.95687e-09
1.39128e-07
7.7187e-09
1.38018e-07
8.81667e-09
1.36915e-07
9.76548e-09
1.35515e-07
1.11426e-08
1.34083e-07
1.23153e-08
1.32314e-07
1.40268e-08
1.30465e-07
1.54627e-08
1.28228e-07
1.75646e-08
1.25854e-07
1.93028e-08
1.2303e-07
2.1843e-08
1.2e-07
2.39172e-08
1.16445e-07
2.69218e-08
1.12609e-07
2.93526e-08
1.08165e-07
3.28029e-08
1.03354e-07
3.55865e-08
9.78586e-08
3.93911e-08
9.19092e-08
4.2479e-08
8.52236e-08
4.6451e-08
7.8008e-08
4.97136e-08
7.00598e-08
5.35768e-08
6.15501e-08
5.67489e-08
5.23719e-08
6.01674e-08
4.26804e-08
6.28764e-08
3.24647e-08
6.54684e-08
2.18824e-08
6.7311e-08
1.10081e-08
6.87185e-08
6.93739e-08
1.46778e-07
9.46877e-10
1.467e-07
9.60364e-10
1.46597e-07
9.92487e-10
1.46523e-07
1.03373e-09
1.46401e-07
1.10002e-09
1.46324e-07
1.17143e-09
1.46177e-07
1.27606e-09
1.4609e-07
1.38178e-09
1.4591e-07
1.53135e-09
1.45804e-07
1.67747e-09
1.45584e-07
1.88134e-09
1.45449e-07
2.0762e-09
1.4518e-07
2.34703e-09
1.45001e-07
2.6016e-09
1.4467e-07
2.95601e-09
1.44431e-07
3.28438e-09
1.44022e-07
3.74378e-09
1.43702e-07
4.16371e-09
1.43195e-07
4.75526e-09
1.42767e-07
5.28882e-09
1.42133e-07
6.04652e-09
1.41565e-07
6.72067e-09
1.40768e-07
7.68635e-09
1.40016e-07
8.53348e-09
1.39009e-07
9.75766e-09
1.38017e-07
1.08158e-08
1.3674e-07
1.23578e-08
1.35438e-07
1.36702e-08
1.33809e-07
1.55968e-08
1.32108e-07
1.72107e-08
1.30025e-07
1.95924e-08
1.27812e-07
2.15556e-08
1.25145e-07
2.44576e-08
1.2228e-07
2.68139e-08
1.18874e-07
3.02793e-08
1.15189e-07
3.30602e-08
1.10865e-07
3.70809e-08
1.06169e-07
4.02948e-08
1.00745e-07
4.47702e-08
9.4841e-08
4.83848e-08
8.81593e-08
5.30872e-08
8.08792e-08
5.69835e-08
7.28053e-08
6.16035e-08
6.40856e-08
6.54466e-08
5.46272e-08
6.95764e-08
4.45796e-08
7.28911e-08
3.39486e-08
7.60482e-08
2.28998e-08
7.83177e-08
1.15258e-08
8.00413e-08
8.08514e-08
1.46807e-07
1.01744e-09
1.46743e-07
1.03195e-09
1.46656e-07
1.06652e-09
1.46597e-07
1.11089e-09
1.46492e-07
1.18224e-09
1.46433e-07
1.25906e-09
1.46304e-07
1.37173e-09
1.46238e-07
1.48549e-09
1.46081e-07
1.64662e-09
1.46001e-07
1.80393e-09
1.45809e-07
2.02369e-09
1.45705e-07
2.23359e-09
1.45471e-07
2.52575e-09
1.45331e-07
2.80018e-09
1.45044e-07
3.1829e-09
1.44854e-07
3.53726e-09
1.44501e-07
4.034e-09
1.44243e-07
4.48778e-09
1.43805e-07
5.12848e-09
1.43455e-07
5.70602e-09
1.42909e-07
6.5284e-09
1.42437e-07
7.2597e-09
1.4175e-07
8.31064e-09
1.41117e-07
9.23206e-09
1.40246e-07
1.05689e-08
1.39402e-07
1.17236e-08
1.3829e-07
1.34147e-08
1.37168e-07
1.48529e-08
1.35738e-07
1.69774e-08
1.34251e-07
1.87548e-08
1.32402e-07
2.13989e-08
1.30436e-07
2.35744e-08
1.28036e-07
2.68238e-08
1.25445e-07
2.94541e-08
1.22324e-07
3.33757e-08
1.18922e-07
3.65081e-08
1.14871e-07
4.11176e-08
1.10431e-07
4.47792e-08
1.0521e-07
4.99884e-08
9.94705e-08
5.41695e-08
9.28399e-08
5.97272e-08
8.55448e-08
6.43263e-08
7.73375e-08
6.98327e-08
6.83693e-08
7.44667e-08
5.85249e-08
7.94551e-08
4.79416e-08
8.35306e-08
3.66321e-08
8.74031e-08
2.4771e-08
9.02378e-08
1.24887e-08
9.23777e-08
9.33986e-08
1.46822e-07
1.07264e-09
1.46774e-07
1.08796e-09
1.46703e-07
1.12445e-09
1.46661e-07
1.17131e-09
1.46573e-07
1.24664e-09
1.46532e-07
1.32781e-09
1.46424e-07
1.44679e-09
1.4638e-07
1.56704e-09
1.46247e-07
1.73727e-09
1.46193e-07
1.90364e-09
1.46031e-07
2.13596e-09
1.45959e-07
2.35811e-09
1.45761e-07
2.66724e-09
1.45661e-07
2.95796e-09
1.4542e-07
3.36336e-09
1.45279e-07
3.73919e-09
1.44983e-07
4.26614e-09
1.44786e-07
4.74813e-09
1.44419e-07
5.42909e-09
1.44146e-07
6.0437e-09
1.43687e-07
6.91986e-09
1.4331e-07
7.69994e-09
1.42731e-07
8.82306e-09
1.42215e-07
9.80884e-09
1.41476e-07
1.12431e-08
1.40774e-07
1.2483e-08
1.3982e-07
1.43065e-08
1.38867e-07
1.58576e-08
1.37623e-07
1.81629e-08
1.36333e-07
2.00901e-08
1.34695e-07
2.29828e-08
1.3295e-07
2.53563e-08
1.30775e-07
2.89482e-08
1.28419e-07
3.18382e-08
1.25518e-07
3.62296e-08
1.22346e-07
3.96982e-08
1.18479e-07
4.49392e-08
1.14232e-07
4.90327e-08
1.09135e-07
5.50404e-08
1.03508e-07
5.97909e-08
9.69618e-08
6.62254e-08
8.96304e-08
7.16382e-08
8.12939e-08
7.81162e-08
7.20551e-08
8.36715e-08
6.18228e-08
8.96283e-08
5.07312e-08
9.45744e-08
3.88163e-08
9.92531e-08
2.62715e-08
1.02723e-07
1.32523e-08
1.05329e-07
1.06585e-07
1.46823e-07
1.11176e-09
1.46792e-07
1.12766e-09
1.46737e-07
1.16555e-09
1.46713e-07
1.21418e-09
1.46644e-07
1.29241e-09
1.46623e-07
1.37665e-09
1.46537e-07
1.50027e-09
1.46517e-07
1.62511e-09
1.4641e-07
1.80205e-09
1.46385e-07
1.97486e-09
1.46255e-07
2.2165e-09
1.46219e-07
2.4474e-09
1.46062e-07
2.76922e-09
1.46007e-07
3.07167e-09
1.45817e-07
3.49418e-09
1.45733e-07
3.88564e-09
1.45501e-07
4.43565e-09
1.45376e-07
4.93845e-09
1.45091e-07
5.65053e-09
1.44908e-07
6.29293e-09
1.44553e-07
7.21136e-09
1.44291e-07
8.02872e-09
1.43843e-07
9.20963e-09
1.43471e-07
1.02457e-08
1.42896e-07
1.17596e-08
1.42374e-07
1.30679e-08
1.41625e-07
1.50022e-08
1.40895e-07
1.66468e-08
1.39904e-07
1.91076e-08
1.38886e-07
2.11629e-08
1.37554e-07
2.42754e-08
1.36136e-07
2.68249e-08
1.34325e-07
3.07286e-08
1.3235e-07
3.38596e-08
1.29866e-07
3.86939e-08
1.27118e-07
4.249e-08
1.23692e-07
4.83555e-08
1.19876e-07
5.28917e-08
1.1516e-07
5.9759e-08
1.09878e-07
6.5118e-08
1.03463e-07
7.2657e-08
9.62039e-08
7.89489e-08
8.7796e-08
8.65565e-08
7.83149e-08
9.32122e-08
6.76391e-08
1.00352e-07
5.58403e-08
1.06442e-07
4.29639e-08
1.12192e-07
2.9199e-08
1.16564e-07
1.47713e-08
1.1983e-07
1.21434e-07
1.46855e-07
1.13403e-09
1.4684e-07
1.15028e-09
1.46804e-07
1.18898e-09
1.46797e-07
1.23869e-09
1.46748e-07
1.31861e-09
1.46748e-07
1.40474e-09
1.46684e-07
1.53106e-09
1.46687e-07
1.65876e-09
1.46608e-07
1.83967e-09
1.46612e-07
2.01653e-09
1.46515e-07
2.26375e-09
1.46514e-07
2.50027e-09
1.46398e-07
2.82981e-09
1.46387e-07
3.13993e-09
1.46247e-07
3.57312e-09
1.46219e-07
3.97501e-09
1.4605e-07
4.53981e-09
1.45995e-07
5.05688e-09
1.4579e-07
5.7896e-09
1.45695e-07
6.45161e-09
1.4544e-07
7.39911e-09
1.45288e-07
8.24368e-09
1.44966e-07
9.46603e-09
1.44731e-07
1.05402e-08
1.44313e-07
1.21139e-08
1.4396e-07
1.34761e-08
1.43404e-07
1.54977e-08
1.42881e-07
1.72191e-08
1.42123e-07
1.9809e-08
1.41354e-07
2.19743e-08
1.40298e-07
2.52799e-08
1.3917e-07
2.79864e-08
1.37668e-07
3.21827e-08
1.36017e-07
3.5535e-08
1.3385e-07
4.08177e-08
1.31438e-07
4.4916e-08
1.2828e-07
5.14713e-08
1.24775e-07
5.63986e-08
1.20212e-07
6.42796e-08
1.15173e-07
7.01463e-08
1.09087e-07
7.86939e-08
1.019e-07
8.6108e-08
9.34016e-08
9.49974e-08
8.35927e-08
1.02974e-07
7.23833e-08
1.11493e-07
5.98682e-08
1.18892e-07
4.61188e-08
1.25861e-07
3.13681e-08
1.31235e-07
1.58744e-08
1.35235e-07
1.3722e-07
1.46872e-07
1.13928e-09
1.46875e-07
1.15562e-09
1.46856e-07
1.19458e-09
1.46869e-07
1.24457e-09
1.46839e-07
1.32503e-09
1.4686e-07
1.41168e-09
1.4682e-07
1.5389e-09
1.46849e-07
1.66742e-09
1.46797e-07
1.8497e-09
1.46832e-07
2.02779e-09
1.4677e-07
2.27706e-09
1.46807e-07
2.51538e-09
1.46734e-07
2.84797e-09
1.46772e-07
3.16075e-09
1.46687e-07
3.59847e-09
1.46721e-07
4.00435e-09
1.46622e-07
4.57593e-09
1.46645e-07
5.09896e-09
1.4653e-07
5.84197e-09
1.46535e-07
6.51303e-09
1.46395e-07
7.47629e-09
1.4637e-07
8.3347e-09
1.46194e-07
9.58145e-09
1.46121e-07
1.0677e-08
1.45889e-07
1.22888e-08
1.45743e-07
1.3684e-08
1.45424e-07
1.57656e-08
1.45162e-07
1.75382e-08
1.44703e-07
2.02231e-08
1.44262e-07
2.24678e-08
1.43581e-07
2.59243e-08
1.42862e-07
2.87533e-08
1.41828e-07
3.31896e-08
1.40678e-07
3.67278e-08
1.39086e-07
4.23929e-08
1.37276e-07
4.6765e-08
1.34811e-07
5.39309e-08
1.32001e-07
5.9245e-08
1.28184e-07
6.81045e-08
1.23852e-07
7.45183e-08
1.17936e-07
8.46344e-08
1.10947e-07
9.31492e-08
1.026e-07
1.03386e-07
9.26975e-08
1.12943e-07
8.11227e-08
1.2313e-07
6.77667e-08
1.32331e-07
5.26945e-08
1.41016e-07
3.60978e-08
1.47929e-07
1.83578e-08
1.53074e-07
1.55681e-07
1.46874e-07
1.12719e-09
1.46895e-07
1.14339e-09
1.46894e-07
1.18198e-09
1.46925e-07
1.23155e-09
1.46915e-07
1.31127e-09
1.46958e-07
1.39721e-09
1.46941e-07
1.52331e-09
1.46994e-07
1.65082e-09
1.46971e-07
1.83159e-09
1.47035e-07
2.00839e-09
1.47007e-07
2.25576e-09
1.47082e-07
2.49255e-09
1.47051e-07
2.82292e-09
1.47135e-07
3.13401e-09
1.47104e-07
3.56933e-09
1.47195e-07
3.97356e-09
1.47164e-07
4.54291e-09
1.47261e-07
5.06472e-09
1.47231e-07
5.80636e-09
1.4733e-07
6.47733e-09
1.47299e-07
7.44134e-09
1.47393e-07
8.30208e-09
1.47355e-07
9.554e-09
1.47434e-07
1.06565e-08
1.47379e-07
1.2282e-08
1.47424e-07
1.36926e-08
1.47327e-07
1.58033e-08
1.47307e-07
1.76063e-08
1.47128e-07
2.03479e-08
1.46987e-07
2.26485e-08
1.46652e-07
2.62101e-08
1.46299e-07
2.91374e-08
1.45682e-07
3.37641e-08
1.44963e-07
3.74678e-08
1.43838e-07
4.34797e-08
1.42502e-07
4.81103e-08
1.4045e-07
5.59488e-08
1.3811e-07
6.15837e-08
1.34189e-07
7.19918e-08
1.30321e-07
7.8372e-08
1.25549e-07
8.93614e-08
1.18958e-07
9.97029e-08
1.10583e-07
1.11704e-07
1.00286e-07
1.23181e-07
8.79362e-08
1.35403e-07
7.35506e-08
1.46632e-07
5.72093e-08
1.57258e-07
3.91947e-08
1.65836e-07
1.99286e-08
1.72224e-07
1.75491e-07
1.46906e-07
1.09813e-09
1.46944e-07
1.11393e-09
1.46961e-07
1.1516e-09
1.47011e-07
1.19994e-09
1.47021e-07
1.27777e-09
1.47085e-07
1.36161e-09
1.47091e-07
1.48475e-09
1.4717e-07
1.60919e-09
1.47175e-07
1.78581e-09
1.4727e-07
1.95845e-09
1.47277e-07
2.20031e-09
1.47391e-07
2.43168e-09
1.47404e-07
2.75498e-09
1.47537e-07
3.05925e-09
1.47562e-07
3.48577e-09
1.47716e-07
3.88163e-09
1.47757e-07
4.44034e-09
1.47934e-07
4.9522e-09
1.47996e-07
5.68141e-09
1.48198e-07
6.34099e-09
1.48286e-07
7.29128e-09
1.48514e-07
8.13973e-09
1.4863e-07
9.37788e-09
1.48881e-07
1.04685e-08
1.49025e-07
1.20828e-08
1.49293e-07
1.34846e-08
1.49454e-07
1.55922e-08
1.49721e-07
1.73943e-08
1.49876e-07
2.01506e-08
1.50107e-07
2.24673e-08
1.50204e-07
2.60794e-08
1.50329e-07
2.90552e-08
1.5027e-07
3.38e-08
1.50165e-07
3.76089e-08
1.49769e-07
4.38624e-08
1.49224e-07
4.86864e-08
1.48181e-07
5.69893e-08
1.46886e-07
6.29062e-08
1.44687e-07
7.41995e-08
1.42402e-07
8.06828e-08
1.37305e-07
4.91952e-08
4.52952e-08
1.30834e-07
5.11306e-08
5.50925e-08
1.23317e-07
5.75194e-08
6.17517e-08
1.13513e-07
6.4247e-08
6.88078e-08
1.01299e-07
7.14236e-08
7.62693e-08
8.61811e-08
7.8459e-08
8.33889e-08
6.81137e-08
8.54427e-08
8.99911e-08
4.72602e-08
9.15679e-08
9.52474e-08
2.42341e-08
9.64925e-08
9.889e-08
9.95154e-08
1.00348e-07
1.46919e-07
1.05229e-09
1.46973e-07
1.06746e-09
1.47008e-07
1.1036e-09
1.47076e-07
1.15002e-09
1.47106e-07
1.22471e-09
1.4719e-07
1.30524e-09
1.47218e-07
1.42344e-09
1.47322e-07
1.54301e-09
1.47353e-07
1.71263e-09
1.47478e-07
1.8786e-09
1.47518e-07
2.11103e-09
1.47668e-07
2.33364e-09
1.47723e-07
2.6446e-09
1.47901e-07
2.93766e-09
1.47978e-07
3.34838e-09
1.4819e-07
3.73013e-09
1.48298e-07
4.26896e-09
1.48549e-07
4.76341e-09
1.48697e-07
5.46805e-09
1.48994e-07
6.10659e-09
1.49193e-07
7.02717e-09
1.49542e-07
7.85087e-09
1.49802e-07
9.05415e-09
1.50211e-07
1.01168e-08
1.50541e-07
1.16921e-08
1.51013e-07
1.30646e-08
1.51417e-07
1.51318e-08
1.51949e-07
1.69073e-08
1.5242e-07
1.96284e-08
1.52995e-07
2.19302e-08
1.53504e-07
2.55249e-08
1.54072e-07
2.85157e-08
1.54552e-07
3.32818e-08
1.55004e-07
3.71743e-08
1.55324e-07
4.35134e-08
1.55437e-07
4.85788e-08
1.55389e-07
5.70146e-08
1.54713e-07
6.35769e-08
1.54187e-07
7.47107e-08
7.62245e-08
8.30972e-08
7.55333e-08
-4.64045e-08
4.7023e-08
7.5634e-08
-7.31364e-08
7.17533e-08
5.24866e-08
-7.01871e-08
6.84195e-08
5.92575e-08
-6.64178e-08
6.39978e-08
6.66323e-08
-6.12909e-08
5.82046e-08
7.44683e-08
-5.47803e-08
5.08798e-08
8.23081e-08
-4.66023e-08
4.19216e-08
9.00633e-08
-3.68646e-08
3.13759e-08
9.69885e-08
-2.55565e-08
1.94489e-08
1.02526e-07
-1.31113e-08
6.59709e-09
1.05952e-07
1.46933e-07
9.90587e-10
1.47004e-07
1.00488e-09
1.47055e-07
1.03896e-09
1.47141e-07
1.0827e-09
1.47189e-07
1.15314e-09
1.47294e-07
1.22904e-09
1.47344e-07
1.34056e-09
1.47471e-07
1.4533e-09
1.47529e-07
1.6134e-09
1.47683e-07
1.76996e-09
1.47756e-07
1.98949e-09
1.47943e-07
2.19962e-09
1.4804e-07
2.49358e-09
1.48265e-07
2.77044e-09
1.48395e-07
3.15913e-09
1.48667e-07
3.52024e-09
1.48844e-07
4.0309e-09
1.49172e-07
4.49933e-09
1.4941e-07
5.16838e-09
1.49807e-07
5.77456e-09
1.50122e-07
6.65072e-09
1.50602e-07
7.43476e-09
1.51014e-07
8.58352e-09
1.51594e-07
9.59855e-09
1.52124e-07
1.11084e-08
1.52821e-07
1.24252e-08
1.53488e-07
1.44168e-08
1.54318e-07
1.61304e-08
1.55137e-07
1.87691e-08
1.56104e-07
2.10084e-08
1.57075e-07
2.45234e-08
1.58165e-07
2.74642e-08
1.59252e-07
3.21742e-08
1.60396e-07
3.60599e-08
1.61494e-07
4.24056e-08
1.62513e-07
4.75813e-08
1.6338e-07
5.61479e-08
1.63831e-07
6.31397e-08
1.63979e-07
7.45704e-08
8.23665e-08
8.43809e-08
8.03349e-08
-4.75165e-08
4.77025e-08
8.22114e-08
-7.92788e-08
7.83084e-08
-5.3526e-08
5.44716e-08
-7.72022e-08
7.57113e-08
-6.08629e-08
6.23272e-08
-7.40036e-08
7.17881e-08
-6.88884e-08
7.10721e-08
-6.9275e-08
6.61513e-08
-7.74598e-08
8.05426e-08
-6.26299e-08
5.86034e-08
-8.62012e-08
9.01724e-08
-5.40502e-08
4.89199e-08
-9.49948e-08
1.00058e-07
-4.32538e-08
3.70197e-08
-1.03023e-07
1.09179e-07
-3.03039e-08
2.31422e-08
-1.09465e-07
1.16541e-07
-1.56386e-08
7.8816e-09
-1.13474e-07
1.2114e-07
1.4695e-07
9.13676e-10
1.47036e-07
9.2688e-10
1.47103e-07
9.58347e-10
1.47205e-07
9.98774e-10
1.47271e-07
1.06382e-09
1.47394e-07
1.13398e-09
1.47465e-07
1.23699e-09
1.47614e-07
1.34124e-09
1.47697e-07
1.48918e-09
1.47877e-07
1.63403e-09
1.47981e-07
1.83701e-09
1.482e-07
2.03154e-09
1.48335e-07
2.30356e-09
1.48602e-07
2.5601e-09
1.48781e-07
2.92015e-09
1.49106e-07
3.25514e-09
1.49345e-07
3.72881e-09
1.49742e-07
4.16403e-09
1.5006e-07
4.7857e-09
1.50546e-07
5.35001e-09
1.50967e-07
6.16596e-09
1.51563e-07
6.89772e-09
1.52114e-07
7.97061e-09
1.52847e-07
8.92117e-09
1.5356e-07
1.03365e-08
1.54461e-07
1.15752e-08
1.55372e-07
1.34507e-08
1.56474e-07
1.50723e-08
1.57623e-07
1.75722e-08
1.58958e-07
1.97078e-08
1.60378e-07
2.3063e-08
1.61969e-07
2.5898e-08
1.63676e-07
3.04364e-08
1.65511e-07
3.42372e-08
1.67471e-07
4.0425e-08
1.69466e-07
4.55869e-08
1.71531e-07
5.40747e-08
1.73445e-07
6.12145e-08
1.75165e-07
7.28545e-08
8.96732e-08
8.30323e-08
8.68196e-08
-4.78621e-08
4.77473e-08
8.98236e-08
-8.63938e-08
8.58999e-08
-5.51277e-08
5.56029e-08
-8.52867e-08
8.42651e-08
-6.35528e-08
6.45545e-08
-8.30465e-08
8.12075e-08
-7.30113e-08
7.48264e-08
-7.90815e-08
7.59102e-08
-8.33359e-08
8.64732e-08
-7.23082e-08
6.83505e-08
-9.38949e-08
9.77927e-08
-6.35999e-08
5.80217e-08
-1.05282e-07
1.10784e-07
-5.16878e-08
4.45414e-08
-1.15999e-07
1.23057e-07
-3.66812e-08
2.815e-08
-1.24771e-07
1.33202e-07
-1.90912e-08
9.64389e-09
-1.30302e-07
1.39642e-07
1.46964e-07
8.22976e-10
1.47064e-07
8.34876e-10
1.47146e-07
8.63265e-10
1.47263e-07
8.99705e-10
1.47345e-07
9.58398e-10
1.47486e-07
1.02165e-09
1.47576e-07
1.11462e-09
1.47746e-07
1.20863e-09
1.47851e-07
1.34221e-09
1.48058e-07
1.47288e-09
1.4819e-07
1.65626e-09
1.48443e-07
1.83187e-09
1.48614e-07
2.07778e-09
1.48922e-07
2.30955e-09
1.49149e-07
2.63535e-09
1.49527e-07
2.93832e-09
1.49828e-07
3.36747e-09
1.50294e-07
3.76162e-09
1.50692e-07
4.32576e-09
1.51269e-07
4.83776e-09
1.51794e-07
5.57972e-09
1.5251e-07
6.24523e-09
1.532e-07
7.22345e-09
1.54091e-07
8.09066e-09
1.54989e-07
9.38558e-09
1.56099e-07
1.05203e-08
1.5726e-07
1.22441e-08
1.58644e-07
1.37377e-08
1.60129e-07
1.60488e-08
1.61849e-07
1.80305e-08
1.63728e-07
2.11562e-08
1.65846e-07
2.3813e-08
1.68181e-07
2.8084e-08
1.70747e-07
3.16942e-08
1.7357e-07
3.75968e-08
1.76578e-07
4.25896e-08
1.79821e-07
5.08393e-08
1.8313e-07
5.7903e-08
1.86462e-07
6.95407e-08
9.6515e-08
7.98111e-08
9.31516e-08
-4.72437e-08
4.6438e-08
9.73578e-08
-9.41537e-08
9.43383e-08
-5.57798e-08
5.55848e-08
-9.44478e-08
9.41707e-08
-6.52609e-08
6.55289e-08
-9.37312e-08
9.27565e-08
-7.63111e-08
7.72766e-08
-9.15633e-08
8.96878e-08
-8.89892e-08
9.08538e-08
-4.39492e-08
-5.16473e-08
4.23692e-08
5.32407e-08
-3.92934e-08
-6.01594e-08
3.74596e-08
6.20241e-08
-3.22636e-08
-6.81541e-08
2.98862e-08
7.05755e-08
-2.24701e-08
-7.47637e-08
1.94867e-08
7.78023e-08
-1.01848e-08
8.2253e-08
-7.87999e-08
6.79487e-09
1.46975e-07
7.19582e-10
1.47087e-07
7.30004e-10
1.47183e-07
7.54843e-10
1.47314e-07
7.86762e-10
1.47411e-07
8.38122e-10
1.47567e-07
8.93533e-10
1.47674e-07
9.74908e-10
1.47862e-07
1.05729e-09
1.47988e-07
1.17425e-09
1.48217e-07
1.28881e-09
1.48375e-07
1.44945e-09
1.48655e-07
1.60348e-09
1.48859e-07
1.81904e-09
1.49202e-07
2.02248e-09
1.49469e-07
2.30831e-09
1.49893e-07
2.5745e-09
1.50246e-07
2.95141e-09
1.50771e-07
3.29815e-09
1.51238e-07
3.79432e-09
1.51892e-07
4.24545e-09
1.52508e-07
4.89923e-09
1.53326e-07
5.48686e-09
1.54137e-07
6.35087e-09
1.55164e-07
7.11871e-09
1.56226e-07
8.26598e-09
1.57521e-07
9.27438e-09
1.58905e-07
1.08077e-08
1.60543e-07
1.21415e-08
1.62339e-07
1.42079e-08
1.64413e-07
1.5989e-08
1.6673e-07
1.88033e-08
1.69353e-07
2.12114e-08
1.72318e-07
2.50936e-08
1.75619e-07
2.84016e-08
1.79364e-07
3.38402e-08
1.83472e-07
3.8476e-08
1.88079e-07
4.62358e-08
1.93069e-07
5.28918e-08
1.98424e-07
6.42078e-08
1.03894e-07
7.40222e-08
1.00283e-07
-4.53014e-08
4.38022e-08
1.05434e-07
-1.02591e-07
1.03602e-07
-5.5054e-08
5.40429e-08
-1.04577e-07
1.05269e-07
-6.5477e-08
6.47892e-08
-1.05807e-07
1.0589e-07
-7.80634e-08
7.79889e-08
-1.05635e-07
1.04671e-07
-9.31431e-08
9.41204e-08
-5.24761e-08
-5.62807e-08
5.17696e-08
5.69876e-08
-4.86698e-08
-6.66576e-08
4.72113e-08
6.81356e-08
-4.15028e-08
-7.7511e-08
3.90463e-08
8.00066e-08
-2.99233e-08
-8.71801e-08
2.62699e-08
9.08919e-08
-1.38673e-08
9.79705e-08
-9.33642e-08
9.33326e-09
1.46987e-07
6.05337e-10
1.47111e-07
6.14106e-10
1.47218e-07
6.35031e-10
1.47361e-07
6.61889e-10
1.47471e-07
7.05161e-10
1.47641e-07
7.51794e-10
1.47763e-07
8.20367e-10
1.47968e-07
8.89717e-10
1.48112e-07
9.88307e-10
1.48362e-07
1.08477e-09
1.48543e-07
1.22023e-09
1.48849e-07
1.35e-09
1.49082e-07
1.53188e-09
1.49458e-07
1.70338e-09
1.49764e-07
1.94472e-09
1.5023e-07
2.16931e-09
1.50633e-07
2.48785e-09
1.51214e-07
2.78073e-09
1.51747e-07
3.20058e-09
1.52474e-07
3.58219e-09
1.53177e-07
4.13629e-09
1.54092e-07
4.63433e-09
1.55017e-07
5.36812e-09
1.56175e-07
6.02057e-09
1.57391e-07
6.99755e-09
1.58863e-07
7.85731e-09
1.60458e-07
9.16767e-09
1.62337e-07
1.031e-08
1.64424e-07
1.20843e-08
1.66834e-07
1.36187e-08
1.6956e-07
1.60506e-08
1.72659e-07
1.81415e-08
1.76214e-07
2.15255e-08
1.80204e-07
2.44271e-08
1.84818e-07
2.92267e-08
1.89949e-07
3.3345e-08
1.95883e-07
4.03186e-08
2.02438e-07
4.63188e-08
2.09906e-07
5.67732e-08
1.10872e-07
6.57572e-08
1.0726e-07
-4.18348e-08
3.94385e-08
1.13311e-07
-1.11338e-07
1.13366e-07
-5.26099e-08
5.05937e-08
-1.15433e-07
1.17372e-07
-6.36362e-08
6.17154e-08
-1.19232e-07
1.20793e-07
-7.74474e-08
7.59123e-08
-1.2209e-07
1.2274e-07
-9.46897e-08
9.40735e-08
-6.3278e-08
-5.86991e-08
6.30578e-08
5.89081e-08
-6.12526e-08
-7.21901e-08
6.01998e-08
7.32494e-08
-5.51595e-08
-8.76173e-08
5.2704e-08
9.01052e-08
-4.19836e-08
-1.028e-07
3.72197e-08
1.07628e-07
-2.01953e-08
1.19885e-07
-1.13262e-07
1.3656e-08
1.46996e-07
4.81693e-10
1.4713e-07
4.88683e-10
1.47246e-07
5.05337e-10
1.474e-07
5.26744e-10
1.4752e-07
5.61188e-10
1.47702e-07
5.98361e-10
1.47836e-07
6.52954e-10
1.48054e-07
7.08246e-10
1.48215e-07
7.86755e-10
1.4848e-07
8.63691e-10
1.4868e-07
9.71594e-10
1.49006e-07
1.07513e-09
1.49263e-07
1.22007e-09
1.49666e-07
1.35697e-09
1.50002e-07
1.54942e-09
1.50501e-07
1.7288e-09
1.50944e-07
1.98302e-09
1.51568e-07
2.21714e-09
1.52153e-07
2.55256e-09
1.52938e-07
2.85793e-09
1.5371e-07
3.3012e-09
1.54702e-07
3.7003e-09
1.55721e-07
4.28834e-09
1.56984e-07
4.81216e-09
1.58328e-07
5.59687e-09
1.59945e-07
6.28886e-09
1.61718e-07
7.3445e-09
1.63801e-07
8.26695e-09
1.66141e-07
9.70216e-09
1.68843e-07
1.09467e-08
1.71937e-07
1.29248e-08
1.75466e-07
1.46304e-08
1.79567e-07
1.74048e-08
1.84209e-07
1.97893e-08
1.89662e-07
2.37702e-08
1.95808e-07
2.71857e-08
2.03071e-07
3.30708e-08
2.11253e-07
3.81049e-08
2.20909e-07
4.71557e-08
1.17581e-07
5.48123e-08
1.14219e-07
-3.66291e-08
3.33505e-08
1.20905e-07
-1.20064e-07
1.23247e-07
-4.80539e-08
4.48949e-08
-1.2657e-07
1.30034e-07
-5.91457e-08
5.57137e-08
-1.33558e-07
1.37108e-07
-7.35683e-08
7.00616e-08
-1.40587e-07
1.43757e-07
-9.24477e-08
8.93314e-08
-7.62293e-08
-5.86817e-08
7.68053e-08
5.80799e-08
-7.75729e-08
-7.56301e-08
7.74516e-08
7.57368e-08
-7.56136e-08
-9.74794e-08
7.52389e-08
9.78654e-08
-6.26657e-08
-1.22872e-07
5.64864e-08
1.29129e-07
-3.22914e-08
1.52716e-07
-1.42433e-07
2.2108e-08
1.47002e-07
3.50826e-10
1.47143e-07
3.55915e-10
1.47267e-07
3.6806e-10
1.47429e-07
3.83645e-10
1.47558e-07
4.08765e-10
1.47749e-07
4.35831e-10
1.47893e-07
4.7565e-10
1.48123e-07
5.15915e-10
1.48296e-07
5.73189e-10
1.48575e-07
6.29227e-10
1.48791e-07
7.07967e-10
1.49135e-07
7.83403e-10
1.49412e-07
8.89206e-10
1.49837e-07
9.88996e-10
1.50199e-07
1.12954e-09
1.50728e-07
1.26038e-09
1.51205e-07
1.44614e-09
1.51868e-07
1.61704e-09
1.52497e-07
1.86232e-09
1.53333e-07
2.08547e-09
1.54165e-07
2.40992e-09
1.55225e-07
2.70198e-09
1.56324e-07
3.13295e-09
1.57678e-07
3.51697e-09
1.5913e-07
4.09304e-09
1.60871e-07
4.60156e-09
1.62793e-07
5.37824e-09
1.65048e-07
6.05825e-09
1.67598e-07
7.11734e-09
1.70542e-07
8.03853e-09
1.73939e-07
9.50418e-09
1.77821e-07
1.07732e-08
1.82375e-07
1.28409e-08
1.87548e-07
1.46265e-08
1.93705e-07
1.76186e-08
2.00686e-07
2.01965e-08
2.09106e-07
2.46759e-08
2.18667e-07
2.85124e-08
2.30341e-07
3.55301e-08
1.23247e-07
4.14413e-08
1.20405e-07
-2.96429e-08
2.54814e-08
1.27456e-07
-1.28161e-07
1.32571e-07
-4.11401e-08
3.6764e-08
-1.37247e-07
1.42427e-07
-5.14835e-08
4.63495e-08
-1.4785e-07
1.53835e-07
-6.54453e-08
5.95206e-08
-1.6002e-07
1.66681e-07
-8.46403e-08
7.80551e-08
-9.08084e-08
-5.46259e-08
9.26024e-08
5.27887e-08
-9.77342e-08
-7.42336e-08
9.91246e-08
7.27983e-08
-1.00946e-07
-1.02772e-07
1.03144e-07
5.0475e-08
5.00486e-08