/*--------------------------------*- C++ -*----------------------------------*\
| =========                 |                                                 |
| \\      /  F ield         | foam-extend: Open Source CFD                    |
|  \\    /   O peration     | Version:     4.0                                |
|   \\  /    A nd           | Web:         http://www.foam-extend.org         |
|    \\/     M anipulation  |                                                 |
\*---------------------------------------------------------------------------*/
FoamFile
{
    version     2.0;
    format      ascii;
    class       volVectorField;
    location    "5e-05";
    object      U;
}
// * * * * * * * * * * * * * * * * * * * * * * * * * * * * * * * * * * * * * //

dimensions      [0 1 -1 0 0 0 0];

internalField   nonuniform List<vector> 
28770
(
(4.90484 0.00237078 0)
(5.08549 0.00239893 0)
(4.89577 0.0024868 0)
(5.07465 0.00257321 0)
(4.88669 0.00275445 0)
(5.06204 0.0029033 0)
(4.87691 0.00318918 0)
(5.04702 0.00340786 0)
(4.86568 0.00381583 0)
(5.02887 0.00411532 0)
(4.85207 0.00466969 0)
(5.00673 0.00506507 0)
(4.835 0.00579782 0)
(4.97956 0.00630904 0)
(4.81314 0.00726081 0)
(4.94607 0.00791352 0)
(4.78487 0.00913448 0)
(4.90462 0.00996102 0)
(4.7482 0.0115116 0)
(4.85321 0.0125518 0)
(4.70071 0.0145029 0)
(4.7893 0.0158049 0)
(4.63946 0.0182367 0)
(4.70979 0.0198568 0)
(4.56088 0.0228559 0)
(4.6109 0.0248581 0)
(4.46072 0.0285112 0)
(4.48811 0.0309647 0)
(4.334 0.0353481 0)
(4.33613 0.0383227 0)
(4.175 0.0434855 0)
(4.14899 0.0470446 0)
(3.97739 0.0529863 0)
(3.92022 0.0571737 0)
(3.73448 0.0638188 0)
(3.64326 0.0686396 0)
(3.43971 0.0758158 0)
(3.31205 0.0812056 0)
(3.0874 0.0886361 0)
(2.922 0.0944184 0)
(2.67382 0.101733 0)
(2.47104 0.107577 0)
(2.19842 0.114335 0)
(1.96089 0.11975 0)
(1.66509 0.125452 0)
(1.39804 0.129871 0)
(1.08294 0.134018 0)
(0.794298 0.136916 0)
(0.466331 0.139103 0)
(0.166244 0.140113 0)
(4.90487 0.00691433 0)
(5.08561 0.00701722 0)
(4.89594 0.00724267 0)
(5.07491 0.00755799 0)
(4.88701 0.00802279 0)
(5.06246 0.00856899 0)
(4.87741 0.00930171 0)
(5.04763 0.0101106 0)
(4.86637 0.0111561 0)
(5.0297 0.0122742 0)
(4.853 0.0136962 0)
(5.00784 0.0151862 0)
(4.83622 0.0170704 0)
(4.981 0.019014 0)
(4.81471 0.0214721 0)
(4.9479 0.0239722 0)
(4.78687 0.0271471 0)
(4.90695 0.0303305 0)
(4.75074 0.0344005 0)
(4.85614 0.0384204 0)
(4.7039 0.0436042 0)
(4.79295 0.0486417 0)
(4.64343 0.0552005 0)
(4.71431 0.0614635 0)
(4.56578 0.0696996 0)
(4.61644 0.0774189 0)
(4.4667 0.0876661 0)
(4.4948 0.0970847 0)
(4.34121 0.109686 0)
(4.3441 0.12104 0)
(4.18354 0.136307 0)
(4.1583 0.149793 0)
(3.98731 0.167935 0)
(3.93083 0.183663 0)
(3.7457 0.204689 0)
(3.65501 0.222607 0)
(3.45201 0.246204 0)
(3.3246 0.26601 0)
(3.10034 0.29141 0)
(2.93482 0.312438 0)
(2.68671 0.338345 0)
(2.48338 0.359468 0)
(2.21034 0.384093 0)
(1.97177 0.403695 0)
(1.675 0.424938 0)
(1.40643 0.441053 0)
(1.08984 0.456773 0)
(0.799277 0.467438 0)
(0.469462 0.475824 0)
(0.167232 0.479563 0)
(4.90494 0.0115157 0)
(5.08581 0.0116737 0)
(4.8963 0.0120702 0)
(5.07541 0.012553 0)
(4.88768 0.0133706 0)
(5.06329 0.0142053 0)
(4.87842 0.0154947 0)
(5.04883 0.0167275 0)
(4.8678 0.0185677 0)
(5.03136 0.0202665 0)
(4.85492 0.0227688 0)
(5.01004 0.0250259 0)
(4.83875 0.028339 0)
(4.98387 0.0312751 0)
(4.81799 0.0355909 0)
(4.95162 0.0393595 0)
(4.79109 0.0449199 0)
(4.91173 0.0497116 0)
(4.75612 0.0568154 0)
(4.86222 0.0628626 0)
(4.71072 0.0718707 0)
(4.80065 0.0794504 0)
(4.65202 0.0907866 0)
(4.72399 0.10022 0)
(4.5765 0.114365 0)
(4.62849 0.126013 0)
(4.47998 0.143484 0)
(4.50967 0.157731 0)
(4.35746 0.179039 0)
(4.3622 0.196268 0)
(4.20315 0.221841 0)
(4.17996 0.242386 0)
(4.01055 0.272458 0)
(3.95621 0.296533 0)
(3.77261 0.330984 0)
(3.68391 0.358575 0)
(3.4822 0.396752 0)
(3.35632 0.427468 0)
(3.13286 0.46804 0)
(2.96795 0.500905 0)
(2.71987 0.541817 0)
(2.51584 0.575047 0)
(2.24173 0.613616 0)
(2.00088 0.644543 0)
(1.70167 0.677623 0)
(1.42921 0.703035 0)
(1.10877 0.727405 0)
(0.812952 0.744186 0)
(0.478203 0.757148 0)
(0.169905 0.763021 0)
(4.90503 0.0157856 0)
(5.08615 0.0160143 0)
(4.89681 0.0165399 0)
(5.07619 0.0172394 0)
(4.88863 0.0183232 0)
(5.06454 0.0195342 0)
(4.87988 0.0212431 0)
(5.05064 0.0230352 0)
(4.86984 0.0254744 0)
(5.03382 0.0279495 0)
(4.85766 0.031268 0)
(5.01329 0.0345643 0)
(4.84234 0.038962 0)
(4.9881 0.0432597 0)
(4.82263 0.0489972 0)
(4.95704 0.0545245 0)
(4.79701 0.0619336 0)
(4.9186 0.0689736 0)
(4.76361 0.0784685 0)
(4.87088 0.0873654 0)
(4.72014 0.0994531 0)
(4.81148 0.110617 0)
(4.66377 0.125903 0)
(4.7374 0.139809 0)
(4.59103 0.158996 0)
(4.64495 0.176179 0)
(4.49776 0.200044 0)
(4.52962 0.221078 0)
(4.37894 0.250425 0)
(4.38601 0.275883 0)
(4.2287 0.311449 0)
(4.20786 0.341836 0)
(4.04032 0.384137 0)
(3.98814 0.419785 0)
(3.80645 0.468886 0)
(3.7194 0.509791 0)
(3.51947 0.565009 0)
(3.39441 0.61061 0)
(3.17225 0.670204 0)
(3.00706 0.719094 0)
(2.7593 0.780057 0)
(2.55368 0.829681 0)
(2.27839 0.887812 0)
(2.03445 0.93431 0)
(1.73227 0.984648 0)
(1.45518 1.02318 0)
(1.13013 1.06057 0)
(0.8284 1.08622 0)
(0.487904 1.10623 0)
(0.172983 1.11525 0)
(4.90517 0.0199773 0)
(5.08655 0.0202558 0)
(4.8975 0.0209385 0)
(5.07716 0.0217897 0)
(4.88993 0.0231978 0)
(5.06615 0.02467 0)
(4.88185 0.026891 0)
(5.05298 0.0290672 0)
(4.87261 0.0322383 0)
(5.03703 0.0352402 0)
(4.8614 0.0395551 0)
(5.01757 0.0435484 0)
(4.84726 0.0492667 0)
(4.9937 0.0544683 0)
(4.82902 0.0619268 0)
(4.96429 0.0686129 0)
(4.80524 0.0782394 0)
(4.92792 0.0867544 0)
(4.77413 0.0990813 0)
(4.88277 0.109847 0)
(4.73349 0.125524 0)
(4.82655 0.139044 0)
(4.6806 0.158846 0)
(4.75639 0.175712 0)
(4.61212 0.200534 0)
(4.66869 0.221415 0)
(4.52394 0.252245 0)
(4.559 0.277865 0)
(4.41112 0.315721 0)
(4.42195 0.346819 0)
(4.26773 0.39262 0)
(4.25114 0.429868 0)
(4.08688 0.484229 0)
(4.0392 0.528112 0)
(3.86074 0.591038 0)
(3.77803 0.641672 0)
(3.58092 0.712167 0)
(3.45932 0.769031 0)
(3.23909 0.844746 0)
(3.07552 0.906281 0)
(2.82815 0.983388 0)
(2.62135 1.04644 0)
(2.34418 1.11985 0)
(2.0957 1.17926 0)
(1.78869 1.24281 0)
(1.50356 1.29211 0)
(1.1705 1.33929 0)
(0.857654 1.37208 0)
(0.506621 1.3973 0)
(0.178736 1.40882 0)
(4.9053 0.0237149 0)
(5.08709 0.0240563 0)
(4.89831 0.0248515 0)
(5.0784 0.0258956 0)
(4.89145 0.0275356 0)
(5.06816 0.029343 0)
(4.88418 0.0319301 0)
(5.05588 0.0346052 0)
(4.87588 0.0382999 0)
(5.04098 0.0419952 0)
(4.8658 0.0470251 0)
(5.0228 0.0519486 0)
(4.85303 0.0586199 0)
(5.00049 0.0650436 0)
(4.83648 0.0737564 0)
(4.97301 0.0820263 0)
(4.81477 0.0932921 0)
(4.93901 0.10384 0)
(4.78622 0.118301 0)
(4.89677 0.131656 0)
(4.74873 0.150104 0)
(4.8441 0.166902 0)
(4.69967 0.190293 0)
(4.77822 0.211284 0)
(4.63578 0.240741 0)
(4.69558 0.266779 0)
(4.55303 0.303574 0)
(4.59177 0.335599 0)
(4.44646 0.381088 0)
(4.46131 0.420075 0)
(4.31001 0.475572 0)
(4.29756 0.522441 0)
(4.13652 0.588987 0)
(4.09272 0.644445 0)
(3.91765 0.722444 0)
(3.83801 0.786754 0)
(3.64417 0.875451 0)
(3.52422 0.948078 0)
(3.30663 1.04495 0)
(3.14281 1.12405 0)
(2.89654 1.22429 0)
(2.6873 1.30603 0)
(2.40844 1.40261 0)
(2.15484 1.48058 0)
(1.84277 1.56511 0)
(1.54965 1.63075 0)
(1.20843 1.69418 0)
(0.885202 1.73839 0)
(0.523879 1.77257 0)
(0.18426 1.78822 0)
(4.9055 0.0272501 0)
(5.08767 0.0276328 0)
(4.8993 0.0285627 0)
(5.07979 0.0297328 0)
(4.8933 0.0316512 0)
(5.07045 0.0336759 0)
(4.887 0.036703 0)
(5.05921 0.0396979 0)
(4.87985 0.0440227 0)
(5.04557 0.0481576 0)
(4.87115 0.0540476 0)
(5.02892 0.0595543 0)
(4.86009 0.0673694 0)
(5.00852 0.0745525 0)
(4.84565 0.0847626 0)
(4.98342 0.0940115 0)
(4.8266 0.107217 0)
(4.9524 0.119021 0)
(4.80137 0.135978 0)
(4.91391 0.150937 0)
(4.768 0.172578 0)
(4.8659 0.191424 0)
(4.72406 0.218881 0)
(4.80579 0.242475 0)
(4.66646 0.277084 0)
(4.73021 0.306424 0)
(4.59133 0.349709 0)
(4.6349 0.3859 0)
(4.49384 0.439506 0)
(4.51447 0.483712 0)
(4.36797 0.549251 0)
(4.36219 0.602596 0)
(4.20634 0.681358 0)
(4.16987 0.744773 0)
(4.00009 0.83725 0)
(3.92785 0.911241 0)
(3.73889 1.01643 0)
(3.62529 1.10074 0)
(3.41139 1.21538 0)
(3.25113 1.3084 0)
(3.00635 1.42668 0)
(2.79595 1.52429 0)
(2.51509 1.63854 0)
(2.25482 1.73243 0)
(1.93573 1.83274 0)
(1.62994 1.91191 0)
(1.2759 1.9873 0)
(0.934419 2.04055 0)
(0.555418 2.08118 0)
(0.194055 2.1 0)
(4.90567 0.0302282 0)
(5.08838 0.0306626 0)
(4.90036 0.031681 0)
(5.08142 0.0330098 0)
(4.89531 0.0351109 0)
(5.07311 0.0374117 0)
(4.89008 0.0407279 0)
(5.06304 0.0441344 0)
(4.88416 0.0488738 0)
(5.0508 0.0535825 0)
(4.87696 0.0600407 0)
(5.03584 0.0663198 0)
(4.86772 0.0748964 0)
(5.01753 0.0830985 0)
(4.85553 0.0943178 0)
(4.995 0.104894 0)
(4.83926 0.119431 0)
(4.96717 0.132949 0)
(4.81748 0.151657 0)
(4.93261 0.168819 0)
(4.78837 0.192764 0)
(4.88944 0.214425 0)
(4.74966 0.244915 0)
(4.83521 0.272097 0)
(4.6984 0.310699 0)
(4.7667 0.344597 0)
(4.63086 0.393139 0)
(4.6797 0.435105 0)
(4.54223 0.495623 0)
(4.56876 0.547121 0)
(4.42642 0.621729 0)
(4.42691 0.684234 0)
(4.27574 0.774852 0)
(4.24537 0.849681 0)
(4.08065 0.957545 0)
(4.01346 1.04557 0)
(3.82972 1.17044 0)
(3.71903 1.27166 0)
(3.50997 1.4107 0)
(3.34971 1.5235 0)
(3.10794 1.67006 0)
(2.89475 1.78991 0)
(2.61224 1.93325 0)
(2.345 2.05081 0)
(2.01852 2.17842 0)
(1.70098 2.27982 0)
(1.33439 2.37725 0)
(0.977129 2.44683 0)
(0.58209 2.50004 0)
(0.202684 2.52491 0)
(4.90593 0.0328971 0)
(5.08909 0.0333616 0)
(4.9016 0.0344851 0)
(5.08315 0.0359057 0)
(4.89761 0.038224 0)
(5.07595 0.0406832 0)
(4.89359 0.0443434 0)
(5.06719 0.0479838 0)
(4.8891 0.0532171 0)
(5.05651 0.0582482 0)
(4.88362 0.0653834 0)
(5.04347 0.0720925 0)
(4.87651 0.081574 0)
(5.02754 0.09034 0)
(4.86699 0.102752 0)
(5.00801 0.114062 0)
(4.85407 0.130158 0)
(4.98396 0.144629 0)
(4.83649 0.165365 0)
(4.95416 0.183766 0)
(4.81266 0.210343 0)
(4.91697 0.233615 0)
(4.78053 0.267516 0)
(4.8702 0.296796 0)
(4.73745 0.339821 0)
(4.81093 0.376448 0)
(4.67995 0.430725 0)
(4.73525 0.476232 0)
(4.60352 0.544182 0)
(4.63794 0.600245 0)
(4.50222 0.684449 0)
(4.51212 0.752794 0)
(4.36834 0.855679 0)
(4.34876 0.937899 0)
(4.19189 1.0611 0)
(4.13631 1.15842 0)
(3.96027 1.30165 0)
(3.86054 1.41464 0)
(3.65798 1.57401 0)
(3.50508 1.70214 0)
(3.26721 1.86912 0)
(3.05365 2.00898 0)
(2.77054 2.17368 0)
(2.49487 2.3123 0)
(2.15997 2.46004 0)
(1.82463 2.57959 0)
(1.43942 2.69265 0)
(1.05464 2.77436 0)
(0.631872 2.83607 0)
(0.218409 2.86519 0)
(4.90613 0.0349326 0)
(5.08993 0.0354348 0)
(4.90285 0.0366167 0)
(5.08508 0.0381531 0)
(4.89999 0.0405925 0)
(5.0791 0.0432537 0)
(4.89723 0.0471059 0)
(5.07173 0.0510484 0)
(4.89422 0.0565586 0)
(5.06271 0.0620126 0)
(4.89051 0.0695302 0)
(5.0517 0.0768117 0)
(4.88558 0.0868108 0)
(5.03826 0.0963369 0)
(4.87876 0.109443 0)
(5.02183 0.121752 0)
(4.86919 0.138778 0)
(5.00164 0.154552 0)
(4.8558 0.176537 0)
(4.97665 0.19663 0)
(4.83718 0.224889 0)
(4.94542 0.250358 0)
(4.81152 0.286533 0)
(4.90601 0.318666 0)
(4.77639 0.364778 0)
(4.85571 0.405116 0)
(4.72856 0.463601 0)
(4.79079 0.513949 0)
(4.66366 0.587656 0)
(4.70611 0.650055 0)
(4.57579 0.742164 0)
(4.59458 0.818812 0)
(4.45699 0.932593 0)
(4.44651 1.02568 0)
(4.29658 1.16397 0)
(4.24899 1.27542 0)
(4.08061 1.43955 0)
(3.98572 1.57061 0)
(3.79148 1.75857 0)
(3.63867 1.90913 0)
(3.40838 2.11271 0)
(3.19297 2.27942 0)
(2.90924 2.48185 0)
(2.62539 2.65213 0)
(2.28024 2.83699 0)
(1.92875 2.98911 0)
(1.5251 3.13425 0)
(1.11756 3.24149 0)
(0.671031 3.32246 0)
(0.231203 3.36139 0)
(4.90642 0.0365764 0)
(5.09074 0.0370953 0)
(4.90426 0.0383467 0)
(5.08704 0.039934 0)
(4.90261 0.0425171 0)
(5.08233 0.0452664 0)
(4.90122 0.0493473 0)
(5.07645 0.0534202 0)
(4.89983 0.0592604 0)
(5.06921 0.0648954 0)
(4.89811 0.0728683 0)
(5.06039 0.0803937 0)
(4.89563 0.0910067 0)
(5.0497 0.100858 0)
(4.89188 0.114782 0)
(5.03673 0.127524 0)
(4.88619 0.145634 0)
(5.02093 0.161986 0)
(4.87769 0.185406 0)
(5.0015 0.206277 0)
(4.86527 0.23644 0)
(4.97733 0.262964 0)
(4.84741 0.301678 0)
(4.94682 0.335247 0)
(4.8221 0.384769 0)
(4.9077 0.427072 0)
(4.78652 0.490174 0)
(4.85672 0.543205 0)
(4.73679 0.623218 0)
(4.78923 0.689263 0)
(4.66746 0.790044 0)
(4.69858 0.871583 0)
(4.5709 0.997308 0)
(4.57531 1.09683 0)
(4.43643 1.25137 0)
(4.40615 1.3711 0)
(4.2493 1.55643 0)
(4.17292 1.69821 0)
(3.98945 1.91082 0)
(3.85185 2.0769 0)
(3.62979 2.30234 0)
(3.4151 2.49642 0)
(3.13549 2.72591 0)
(2.84261 2.92594 0)
(2.48993 3.13823 0)
(2.1157 3.31581 0)
(1.68654 3.48262 0)
(1.23893 3.60671 0)
(0.74927 3.69945 0)
(0.256529 3.74423 0)
(4.90664 0.0375411 0)
(5.09166 0.0380817 0)
(4.90563 0.039357 0)
(5.08917 0.0410109 0)
(4.90521 0.0436441 0)
(5.08578 0.0465099 0)
(4.90521 0.0506711 0)
(5.08144 0.0549196 0)
(4.90545 0.0608774 0)
(5.07604 0.0667607 0)
(4.90569 0.0748997 0)
(5.06946 0.0827649 0)
(4.90562 0.0936096 0)
(5.06154 0.103918 0)
(4.90487 0.118165 0)
(5.05204 0.131516 0)
(4.90293 0.150079 0)
(5.04059 0.16724 0)
(4.89917 0.191301 0)
(5.02662 0.213246 0)
(4.89269 0.244323 0)
(5.0093 0.272277 0)
(4.8823 0.312305 0)
(4.98737 0.347792 0)
(4.8663 0.399217 0)
(4.95891 0.444112 0)
(4.84227 0.509988 0)
(4.92106 0.566563 0)
(4.80667 0.650637 0)
(4.86946 0.721579 0)
(4.75431 0.828336 0)
(4.79752 0.916718 0)
(4.67754 1.05129 0)
(4.69528 1.16045 0)
(4.56513 1.32826 0)
(4.5477 1.46154 0)
(4.4009 1.6673 0)
(4.33272 1.82787 0)
(4.16228 2.07316 0)
(4.02203 2.26427 0)
(3.81916 2.54151 0)
(3.60771 2.76681 0)
(3.3298 3.04457 0)
(3.02912 3.2882 0)
(2.66199 3.55196 0)
(2.26595 3.78033 0)
(1.80993 3.99691 0)
(1.32987 4.16428 0)
(0.805688 4.28928 0)
(0.275052 4.35142 0)
(4.90695 0.0380612 0)
(5.09252 0.0386035 0)
(4.90713 0.0399087 0)
(5.09124 0.0415681 0)
(4.90799 0.0442636 0)
(5.08921 0.0471391 0)
(4.90945 0.0514003 0)
(5.08644 0.0556638 0)
(4.91143 0.0617681 0)
(5.08294 0.0676737 0)
(4.91378 0.0760187 0)
(5.07871 0.0839178 0)
(4.91635 0.0950466 0)
(5.07374 0.105408 0)
(4.9189 0.120045 0)
(5.06798 0.133482 0)
(4.92117 0.152578 0)
(5.06129 0.169881 0)
(4.92274 0.194677 0)
(5.05342 0.216855 0)
(4.92307 0.248957 0)
(5.04389 0.277294 0)
(4.92136 0.318772 0)
(5.03192 0.354881 0)
(4.91641 0.40839 0)
(5.01616 0.454283 0)
(4.90642 0.52321 0)
(4.99444 0.581358 0)
(4.88858 0.669982 0)
(4.96323 0.743349 0)
(4.85854 0.857017 0)
(4.9169 0.949016 0)
(4.80955 1.09425 0)
(4.84651 1.20853 0)
(4.73125 1.39296 0)
(4.73813 1.53283 0)
(4.60801 1.76417 0)
(4.57032 1.932 0)
(4.41676 2.21221 0)
(4.31045 2.41212 0)
(4.12186 2.70479 0)
(3.90769 2.97369 0)
(3.64602 3.28863 0)
(3.33943 3.57673 0)
(2.97182 3.88092 0)
(2.55139 4.14579 0)
(2.0625 4.39382 0)
(1.52521 4.58469 0)
(0.932513 4.72639 0)
(0.31738 4.79654 0)
(4.90717 0.037891 0)
(5.09347 0.0384376 0)
(4.90854 0.0397299 0)
(5.09343 0.0414029 0)
(4.91067 0.0440721 0)
(5.09277 0.0469725 0)
(4.91356 0.0511934 0)
(5.09159 0.0554963 0)
(4.91721 0.0615459 0)
(5.08999 0.0675107 0)
(4.92159 0.0757865 0)
(5.08809 0.0837724 0)
(4.92666 0.0948198 0)
(5.08602 0.105306 0)
(4.93236 0.119856 0)
(5.0839 0.133471 0)
(4.93857 0.152487 0)
(5.08181 0.170046 0)
(4.94516 0.194792 0)
(5.07977 0.217341 0)
(4.95187 0.249468 0)
(5.07766 0.278344 0)
(4.95827 0.319999 0)
(5.07512 0.356907 0)
(4.96364 0.410873 0)
(5.07134 0.457969 0)
(4.9667 0.527844 0)
(5.06478 0.587836 0)
(4.96529 0.67824 0)
(5.0526 0.754482 0)
(4.9557 0.871294 0)
(5.02982 0.967838 0)
(4.93164 1.11842 0)
(4.98776 1.23995 0)
(4.88267 1.43327 0)
(4.91117 1.58479 0)
(4.79175 1.83127 0)
(4.77143 2.01761 0)
(4.6324 2.32813 0)
(4.50436 2.5557 0)
(4.36904 2.93752 0)
(4.17939 3.2362 0)
(3.92029 3.60381 0)
(3.60908 3.95277 0)
(3.2192 4.32776 0)
(2.76817 4.67623 0)
(2.23969 5.00727 0)
(1.65552 5.2772 0)
(1.01313 5.47851 0)
(0.343745 5.58217 0)
(4.90748 0.0372549 0)
(5.09432 0.0377879 0)
(4.91004 0.0390689 0)
(5.09549 0.0407 0)
(4.91344 0.0433464 0)
(5.09618 0.0461745 0)
(4.9178 0.050361 0)
(5.09658 0.0545576 0)
(4.92319 0.0605609 0)
(5.09688 0.0663809 0)
(4.9297 0.0745991 0)
(5.09735 0.0823961 0)
(4.93743 0.0933764 0)
(5.09826 0.103625 0)
(4.94648 0.118102 0)
(5.09993 0.131429 0)
(4.95698 0.150377 0)
(5.10272 0.167598 0)
(4.96905 0.192303 0)
(5.10696 0.214476 0)
(4.9828 0.246628 0)
(5.11295 0.27512 0)
(4.99828 0.316943 0)
(5.1209 0.353517 0)
(5.01537 0.407936 0)
(5.13069 0.454858 0)
(5.03358 0.525728 0)
(5.1417 0.585898 0)
(5.05175 0.678305 0)
(5.15226 0.755395 0)
(5.06745 0.876073 0)
(5.15887 0.974624 0)
(5.07599 1.13256 0)
(5.1548 1.25786 0)
(5.0689 1.46543 0)
(5.12783 1.62252 0)
(5.03181 1.89872 0)
(5.05683 2.08792 0)
(4.94363 2.47142 0)
(4.90713 2.66908 0)
(4.78818 3.01996 0)
(4.56008 3.41062 0)
(4.34766 3.84316 0)
(4.04829 4.25928 0)
(3.68019 4.69915 0)
(3.21674 5.09926 0)
(2.65094 5.47661 0)
(1.98663 5.77856 0)
(1.23112 6.00308 0)
(0.41888 6.1172 0)
(4.90769 0.0359539 0)
(5.09525 0.0364738 0)
(4.91139 0.0377045 0)
(5.09762 0.0392959 0)
(4.91603 0.0418389 0)
(5.09964 0.0445991 0)
(4.92177 0.0486231 0)
(5.10158 0.0527212 0)
(4.92879 0.0584943 0)
(5.10374 0.0641811 0)
(4.93728 0.0720897 0)
(5.10648 0.0797143 0)
(4.94745 0.0902909 0)
(5.11023 0.100322 0)
(4.95958 0.114285 0)
(5.1155 0.127343 0)
(4.97399 0.145649 0)
(5.12286 0.162544 0)
(4.99106 0.186462 0)
(5.13296 0.208251 0)
(5.01125 0.239464 0)
(5.14651 0.267521 0)
(5.03504 0.308258 0)
(5.16422 0.344372 0)
(5.06287 0.397598 0)
(5.18668 0.444102 0)
(5.09501 0.513767 0)
(5.21418 0.573699 0)
(5.13126 0.665086 0)
(5.24624 0.742398 0)
(5.17036 0.862582 0)
(5.28096 0.962351 0)
(5.20898 1.12081 0)
(5.3137 1.24936 0)
(5.23973 1.45878 0)
(5.33543 1.62318 0)
(5.24746 1.90063 0)
(5.3322 2.10574 0)
(5.20145 2.47529 0)
(5.2964 2.70967 0)
(5.13643 3.16778 0)
(4.89395 3.40774 0)
(4.68064 3.83042 0)
(4.40808 4.29505 0)
(4.03944 4.79281 0)
(3.57314 5.29625 0)
(2.99066 5.80598 0)
(2.30206 6.26751 0)
(1.50965 6.64773 0)
(0.646681 6.89296 0)
(4.90799 0.0341989 0)
(5.09603 0.0346899 0)
(4.9128 0.0358689 0)
(5.09954 0.037372 0)
(4.91864 0.0398087 0)
(5.10283 0.0424161 0)
(4.92575 0.0462732 0)
(5.10624 0.0501455 0)
(4.93441 0.0556818 0)
(5.11019 0.0610579 0)
(4.94491 0.0686469 0)
(5.11517 0.0758604 0)
(4.95761 0.0860179 0)
(5.12175 0.095519 0)
(4.97294 0.108942 0)
(5.13064 0.121329 0)
(4.99145 0.138952 0)
(5.14268 0.155012 0)
(5.0138 0.178079 0)
(5.15885 0.198849 0)
(5.04083 0.22902 0)
(5.18032 0.255863 0)
(5.07353 0.295361 0)
(5.20838 0.330073 0)
(5.11302 0.381889 0)
(5.24444 0.426854 0)
(5.16048 0.495036 0)
(5.28987 0.553432 0)
(5.21693 0.643498 0)
(5.34564 0.71959 0)
(5.28282 0.839105 0)
(5.41172 0.938656 0)
(5.35702 1.09801 0)
(5.48573 1.22888 0)
(5.43494 1.44216 0)
(5.56048 1.61533 0)
(5.50432 1.90041 0)
(5.61952 2.13262 0)
(5.53498 2.50549 0)
(5.62957 2.82998 0)
(5.59714 3.23356 0)
(5.31639 3.54635 0)
(5.16576 4.04445 0)
(4.93321 4.59587 0)
(4.59098 5.19166 0)
(4.11142 5.81532 0)
(3.4914 6.4635 0)
(2.71986 7.07212 0)
(1.80538 7.57292 0)
(0.783644 7.89583 0)
(4.90817 0.0318402 0)
(5.09688 0.0323016 0)
(4.91401 0.0333951 0)
(5.10148 0.0348078 0)
(4.92096 0.037068 0)
(5.10597 0.0395195 0)
(4.92934 0.0430982 0)
(5.11079 0.0467403 0)
(4.93947 0.0518793 0)
(5.11643 0.0569384 0)
(4.95177 0.0639873 0)
(5.12349 0.0707795 0)
(4.9667 0.0802225 0)
(5.13268 0.089175 0)
(4.98485 0.101669 0)
(5.14488 0.11335 0)
(5.00697 0.129778 0)
(5.16117 0.144939 0)
(5.03399 0.166484 0)
(5.18284 0.186115 0)
(5.06708 0.214367 0)
(5.21147 0.23978 0)
(5.1077 0.276881 0)
(5.24894 0.309819 0)
(5.15763 0.358683 0)
(5.29747 0.40148 0)
(5.21895 0.466097 0)
(5.35954 0.521909 0)
(5.29395 0.607799 0)
(5.43778 0.68094 0)
(5.38486 0.795817 0)
(5.53447 0.892249 0)
(5.49316 1.04697 0)
(5.65068 1.17506 0)
(5.61814 1.38494 0)
(5.78413 1.55668 0)
(5.75397 1.84287 0)
(5.92468 2.07659 0)
(5.88429 2.46598 0)
(6.04179 2.79527 0)
(6.13734 3.25488 0)
(5.81204 3.63382 0)
(5.72855 4.20787 0)
(5.5626 4.85441 0)
(5.27309 5.56407 0)
(4.78249 6.31164 0)
(4.13565 7.16001 0)
(3.27321 7.98145 0)
(2.20294 8.67037 0)
(0.969458 9.11752 0)
(4.90844 0.0290715 0)
(5.09755 0.0294902 0)
(4.91525 0.0304949 0)
(5.10313 0.0317768 0)
(4.92325 0.0338538 0)
(5.10873 0.0360787 0)
(4.93282 0.0393683 0)
(5.11484 0.0426747 0)
(4.9444 0.0474005 0)
(5.12205 0.0519957 0)
(4.95847 0.0584812 0)
(5.13107 0.0646553 0)
(4.97562 0.0733496 0)
(5.14275 0.0814964 0)
(4.99661 0.0930101 0)
(5.15817 0.103656 0)
(5.02238 0.118813 0)
(5.17862 0.13266 0)
(5.05412 0.152567 0)
(5.20574 0.170547 0)
(5.09338 0.196703 0)
(5.24153 0.220061 0)
(5.14211 0.2545 0)
(5.28847 0.284915 0)
(5.20277 0.330427 0)
(5.34962 0.370185 0)
(5.2784 0.430634 0)
(5.42862 0.482891 0)
(5.37265 0.563699 0)
(5.52974 0.63289 0)
(5.48973 0.741748 0)
(5.65765 0.834244 0)
(5.63394 0.982162 0)
(5.81665 1.10736 0)
(5.80861 1.31012 0)
(6.00887 1.48237 0)
(6.0134 1.76219 0)
(6.22965 2.00426 0)
(6.23869 2.3911 0)
(6.45651 2.74005 0)
(6.62844 3.18773 0)
(6.35477 3.65741 0)
(6.36969 4.30205 0)
(6.30986 5.05235 0)
(6.14744 5.89946 0)
(5.76311 7.05724 0)
(5.14448 8.12992 0)
(4.14864 9.17287 0)
(2.76484 10.0471 0)
(1.05779 10.5891 0)
(4.90858 0.0257935 0)
(5.09828 0.0261681 0)
(4.91625 0.0270563 0)
(5.10477 0.0282032 0)
(4.92518 0.0300397 0)
(5.11137 0.0320307 0)
(4.9358 0.0349401 0)
(5.11866 0.0378998 0)
(4.9486 0.0420809 0)
(5.12728 0.0461957 0)
(4.96417 0.051937 0)
(5.13804 0.0574678 0)
(4.98319 0.0651703 0)
(5.15193 0.0724716 0)
(5.00655 0.0826822 0)
(5.17015 0.0922287 0)
(5.03537 0.105688 0)
(5.19422 0.118112 0)
(5.07108 0.13582 0)
(5.22606 0.151966 0)
(5.11556 0.175284 0)
(5.26806 0.196281 0)
(5.1712 0.22707 0)
(5.32329 0.254453 0)
(5.24112 0.295289 0)
(5.39559 0.331158 0)
(5.32931 0.385652 0)
(5.48984 0.43294 0)
(5.44083 0.50624 0)
(5.61212 0.569119 0)
(5.58202 0.668694 0)
(5.76988 0.753252 0)
(5.76059 0.890148 0)
(5.9718 1.00553 0)
(5.98533 1.1964 0)
(6.22679 1.35686 0)
(6.26499 1.62718 0)
(6.54049 1.85583 0)
(6.60475 2.24508 0)
(6.90506 2.58052 0)
(7.15804 3.03619 0)
(6.94922 3.58665 0)
(7.08194 4.29514 0)
(7.15522 5.15731 0)
(7.12052 6.20486 0)
(6.99257 7.55195 0)
(6.43525 8.93995 0)
(5.3974 10.3832 0)
(3.7435 11.6685 0)
(1.49866 12.5014 0)
(4.90881 0.0221786 0)
(5.09879 0.0224988 0)
(4.91725 0.0232667 0)
(5.10605 0.0242473 0)
(4.927 0.0258353 0)
(5.11353 0.0275378 0)
(4.93857 0.0300542 0)
(5.12183 0.0325857 0)
(4.95252 0.0362032 0)
(5.1317 0.0397243 0)
(4.9695 0.0446936 0)
(5.14402 0.0494298 0)
(4.99031 0.0561001 0)
(5.1599 0.0623589 0)
(5.01596 0.0712072 0)
(5.18069 0.0794023 0)
(5.04772 0.0910756 0)
(5.20813 0.101762 0)
(5.08727 0.117138 0)
(5.24438 0.13106 0)
(5.13677 0.151336 0)
(5.29224 0.169503 0)
(5.19907 0.196327 0)
(5.35527 0.220119 0)
(5.27788 0.255785 0)
(5.4381 0.287122 0)
(5.37806 0.334872 0)
(5.54669 0.376476 0)
(5.50599 0.440973 0)
(5.68881 0.496792 0)
(5.67002 0.584886 0)
(5.87449 0.660807 0)
(5.88096 0.782798 0)
(6.11652 0.887855 0)
(6.15262 1.05967 0)
(6.43068 1.20813 0)
(6.50198 1.45529 0)
(6.83467 1.67017 0)
(6.94828 2.03557 0)
(7.34314 2.35412 0)
(7.65157 2.77387 0)
(7.56916 3.39559 0)
(7.85063 4.14142 0)
(8.10388 5.08514 0)
(8.28058 6.28082 0)
(8.48626 7.83616 0)
(8.15973 9.66725 0)
(7.23317 11.7299 0)
(5.31001 13.7187 0)
(2.24374 15.119 0)
(4.90889 0.0181772 0)
(5.09934 0.0184416 0)
(4.91797 0.0190688 0)
(5.10728 0.0198785 0)
(4.9284 0.0211756 0)
(5.1155 0.0225815 0)
(4.94074 0.0246373 0)
(5.12468 0.0267283 0)
(4.95559 0.0296845 0)
(5.13559 0.0325933 0)
(4.97367 0.036656 0)
(5.14921 0.0405694 0)
(4.99585 0.046026 0)
(5.16672 0.0511984 0)
(5.02324 0.0584425 0)
(5.1896 0.0652163 0)
(5.05726 0.0747834 0)
(5.21974 0.0836177 0)
(5.09977 0.096237 0)
(5.25954 0.107749 0)
(5.1532 0.12442 0)
(5.31212 0.139447 0)
(5.22076 0.161553 0)
(5.38151 0.181245 0)
(5.30673 0.210726 0)
(5.47303 0.236689 0)
(5.4168 0.276317 0)
(5.59373 0.310842 0)
(5.55864 0.364663 0)
(5.75303 0.411104 0)
(5.74262 0.485175 0)
(5.96367 0.548597 0)
(5.9829 0.65227 0)
(6.24291 0.740578 0)
(6.29893 0.88883 0)
(6.61416 1.0148 0)
(6.71741 1.2327 0)
(7.10868 1.41764 0)
(7.27444 1.74944 0)
(7.76613 2.02953 0)
(8.12499 2.39929 0)
(8.19322 3.05696 0)
(8.64567 3.79881 0)
(9.12546 4.77263 0)
(9.59923 6.06408 0)
(10.3102 7.78024 0)
(10.4472 10.1276 0)
(10.0908 13.1523 0)
(8.05383 16.3068 0)
(3.6978 18.9545 0)
(4.90907 0.0139357 0)
(5.09966 0.0141372 0)
(4.91865 0.0146204 0)
(5.10812 0.0152377 0)
(4.92964 0.0162371 0)
(5.11692 0.017309 0)
(4.94263 0.0188933 0)
(5.12677 0.0204878 0)
(4.95826 0.0227663 0)
(5.13853 0.0249855 0)
(4.97731 0.0281176 0)
(5.1532 0.031105 0)
(5.00072 0.035313 0)
(5.17206 0.0392651 0)
(5.02968 0.0448537 0)
(5.19669 0.0500356 0)
(5.06574 0.05742 0)
(5.22913 0.0641894 0)
(5.1109 0.0739359 0)
(5.27198 0.0827766 0)
(5.16781 0.095663 0)
(5.3286 0.107235 0)
(5.24 0.124341 0)
(5.40342 0.13956 0)
(5.33216 0.162405 0)
(5.50232 0.182561 0)
(5.45066 0.213325 0)
(5.6332 0.240277 0)
(5.60417 0.28216 0)
(5.80682 0.318661 0)
(5.80465 0.376494 0)
(6.0381 0.42674 0)
(6.06894 0.508081 0)
(6.34815 0.578669 0)
(6.42113 0.695894 0)
(6.76738 0.797517 0)
(6.89642 0.972091 0)
(7.34065 1.1226 0)
(7.54742 1.39439 0)
(8.13548 1.62448 0)
(8.51926 1.90491 0)
(8.77683 2.55633 0)
(9.41348 3.23478 0)
(10.1519 4.15713 0)
(10.9941 5.43861 0)
(12.4168 7.13865 0)
(13.3582 9.85148 0)
(13.6464 13.8684 0)
(12.3459 19.6343 0)
(7.49755 27.469 0)
(4.90909 0.00945272 0)
(5.10001 0.00959037 0)
(4.91904 0.00991692 0)
(5.10886 0.0103385 0)
(4.93043 0.011014 0)
(5.1181 0.0117462 0)
(4.94385 0.0128169 0)
(5.12847 0.0139062 0)
(4.95999 0.0154466 0)
(5.14083 0.0169625 0)
(4.97966 0.0190806 0)
(5.15626 0.0211212 0)
(5.00384 0.023968 0)
(5.17606 0.0266671 0)
(5.03379 0.0304501 0)
(5.20191 0.0339884 0)
(5.07112 0.0389906 0)
(5.23591 0.0436114 0)
(5.11797 0.0502201 0)
(5.28082 0.0562522 0)
(5.17715 0.0650008 0)
(5.3402 0.0728932 0)
(5.25242 0.0845253 0)
(5.41878 0.0949001 0)
(5.34884 0.110469 0)
(5.52289 0.124204 0)
(5.47332 0.145231 0)
(5.66113 0.163598 0)
(5.63539 0.192339 0)
(5.8454 0.217228 0)
(5.84845 0.257132 0)
(6.09251 0.291455 0)
(6.13167 0.348002 0)
(6.42681 0.396401 0)
(6.51322 0.478713 0)
(6.88461 0.548873 0)
(7.03571 0.673025 0)
(7.52218 0.778157 0)
(7.76587 0.97437 0)
(8.43092 1.13815 0)
(8.82315 1.30665 0)
(9.27397 1.89356 0)
(10.0823 2.43789 0)
(11.0772 3.19893 0)
(12.3124 4.29838 0)
(14.5907 5.67555 0)
(16.8045 8.28097 0)
(19.3874 12.6356 0)
(21.6771 21.7063 0)
(18.6127 39.4268 0)
(4.90921 0.00479426 0)
(5.10012 0.00486363 0)
(4.91939 0.00503003 0)
(5.1092 0.00524249 0)
(4.93103 0.00558669 0)
(5.11869 0.00595572 0)
(4.94476 0.0065014 0)
(5.12936 0.00705049 0)
(4.96127 0.0078355 0)
(5.1421 0.00859995 0)
(4.9814 0.00967939 0)
(5.158 0.0107089 0)
(5.00618 0.0121598 0)
(5.17843 0.0135226 0)
(5.03688 0.0154507 0)
(5.20509 0.0172391 0)
(5.0752 0.0197887 0)
(5.24017 0.0221273 0)
(5.12333 0.0254961 0)
(5.28651 0.0285542 0)
(5.18418 0.0330144 0)
(5.34779 0.0370245 0)
(5.26164 0.0429557 0)
(5.42893 0.0482412 0)
(5.36099 0.0561814 0)
(5.5365 0.063202 0)
(5.48941 0.0739288 0)
(5.67952 0.0833529 0)
(5.65691 0.0980201 0)
(5.87052 0.110847 0)
(5.87764 0.131224 0)
(6.12745 0.148993 0)
(6.17213 0.177906 0)
(6.47666 0.203073 0)
(6.57103 0.245282 0)
(6.95842 0.281892 0)
(7.12183 0.345922 0)
(7.63693 0.400932 0)
(7.90134 0.503077 0)
(8.62015 0.589154 0)
(8.99276 0.61654 0)
(9.63131 1.08813 0)
(10.5723 1.42759 0)
(11.7728 1.90981 0)
(13.3404 2.62322 0)
(16.3721 3.30896 0)
(19.8746 5.08383 0)
(25.1261 8.27565 0)
(31.934 13.8105 0)
(48.4329 25.2539 0)
(4.90916 5.45159e-10 0)
(5.10025 5.4452e-10 0)
(4.91942 5.42687e-10 0)
(5.10942 5.39317e-10 0)
(4.93113 5.3487e-10 0)
(5.11901 5.30266e-10 0)
(4.94494 5.24855e-10 0)
(5.12979 5.18858e-10 0)
(4.96153 5.13224e-10 0)
(5.14266 5.07665e-10 0)
(4.98175 5.02006e-10 0)
(5.15872 4.9586e-10 0)
(5.00663 4.91446e-10 0)
(5.17933 4.85965e-10 0)
(5.03747 4.81312e-10 0)
(5.20621 4.77088e-10 0)
(5.07597 4.72628e-10 0)
(5.24158 4.68822e-10 0)
(5.12434 4.64724e-10 0)
(5.28828 4.6078e-10 0)
(5.18555 4.57956e-10 0)
(5.35006 4.54622e-10 0)
(5.26354 4.52767e-10 0)
(5.4319 4.50051e-10 0)
(5.36367 4.49979e-10 0)
(5.54049 4.47542e-10 0)
(5.4933 4.47846e-10 0)
(5.68503 4.47044e-10 0)
(5.66266 4.50271e-10 0)
(5.87834 4.49022e-10 0)
(5.88629 4.56079e-10 0)
(6.13883 4.54709e-10 0)
(6.18532 4.66396e-10 0)
(6.49366 4.64521e-10 0)
(6.59143 4.83321e-10 0)
(6.98447 4.77559e-10 0)
(7.15385 5.05801e-10 0)
(7.67813 4.94088e-10 0)
(7.95267 5.36155e-10 0)
(8.68816 5.10286e-10 0)
(9.01633 -0.117036 0)
(9.80704 0.17974 0)
(10.8105 0.260814 0)
(12.1126 0.372258 0)
(13.8502 0.534395 0)
(17.2051 0.271057 0)
(21.3424 0.545761 0)
(27.937 0.987044 0)
(36.9835 0.237208 0)
(55.0128 0.171743 0)
(4.90921 -0.00479426 0)
(5.10012 -0.00486363 0)
(4.91939 -0.00503003 0)
(5.1092 -0.00524249 0)
(4.93103 -0.00558669 0)
(5.11869 -0.00595572 0)
(4.94476 -0.00650139 0)
(5.12936 -0.00705049 0)
(4.96127 -0.00783549 0)
(5.1421 -0.00859995 0)
(4.9814 -0.00967939 0)
(5.158 -0.0107089 0)
(5.00618 -0.0121598 0)
(5.17843 -0.0135226 0)
(5.03688 -0.0154507 0)
(5.20509 -0.0172391 0)
(5.0752 -0.0197887 0)
(5.24017 -0.0221273 0)
(5.12333 -0.0254961 0)
(5.28651 -0.0285542 0)
(5.18418 -0.0330144 0)
(5.34779 -0.0370245 0)
(5.26164 -0.0429557 0)
(5.42893 -0.0482412 0)
(5.36099 -0.0561814 0)
(5.5365 -0.063202 0)
(5.48941 -0.0739288 0)
(5.67952 -0.0833529 0)
(5.65691 -0.0980201 0)
(5.87052 -0.110847 0)
(5.87764 -0.131224 0)
(6.12745 -0.148993 0)
(6.17213 -0.177906 0)
(6.47666 -0.203073 0)
(6.57103 -0.245282 0)
(6.95842 -0.281892 0)
(7.12183 -0.345922 0)
(7.63693 -0.400932 0)
(7.90134 -0.503077 0)
(8.62015 -0.589154 0)
(8.87781 -0.84076 0)
(9.76808 -0.747305 0)
(10.7478 -0.936499 0)
(12.0137 -1.21599 0)
(13.692 -1.64291 0)
(16.763 -2.82464 0)
(20.5073 -4.14488 0)
(26.2867 -6.66396 0)
(33.9069 -13.3375 0)
(52.026 -24.8703 0)
(4.90909 -0.00945272 0)
(5.10001 -0.00959037 0)
(4.91904 -0.00991691 0)
(5.10886 -0.0103385 0)
(4.93043 -0.011014 0)
(5.1181 -0.0117462 0)
(4.94385 -0.0128169 0)
(5.12847 -0.0139062 0)
(4.95999 -0.0154466 0)
(5.14083 -0.0169625 0)
(4.97966 -0.0190806 0)
(5.15626 -0.0211212 0)
(5.00384 -0.023968 0)
(5.17606 -0.0266671 0)
(5.03379 -0.0304501 0)
(5.20191 -0.0339884 0)
(5.07112 -0.0389906 0)
(5.23591 -0.0436114 0)
(5.11797 -0.0502201 0)
(5.28082 -0.0562522 0)
(5.17715 -0.0650008 0)
(5.3402 -0.0728932 0)
(5.25242 -0.0845253 0)
(5.41878 -0.0949001 0)
(5.34884 -0.110469 0)
(5.52289 -0.124204 0)
(5.47332 -0.145231 0)
(5.66113 -0.163598 0)
(5.63539 -0.192339 0)
(5.8454 -0.217228 0)