/*--------------------------------*- C++ -*----------------------------------*\
| =========                 |                                                 |
| \\      /  F ield         | foam-extend: Open Source CFD                    |
|  \\    /   O peration     | Version:     4.0                                |
|   \\  /    A nd           | Web:         http://www.foam-extend.org         |
|    \\/     M anipulation  |                                                 |
\*---------------------------------------------------------------------------*/
FoamFile
{
    version     2.0;
    format      ascii;
    class       volScalarField;
    location    "0.0016";
    object      k;
}
// * * * * * * * * * * * * * * * * * * * * * * * * * * * * * * * * * * * * * //

dimensions      [0 2 -2 0 0 0 0];

internalField   nonuniform List<scalar> 
28770
(
1.10419e-07
2.62765e-07
3.92881e-07
5.11182e-07
6.18674e-07
7.17774e-07
8.08836e-07
8.92232e-07
9.68146e-07
1.03668e-06
1.09788e-06
1.15179e-06
1.19843e-06
1.23781e-06
1.26994e-06
1.29483e-06
1.31251e-06
1.32301e-06
1.32635e-06
1.32261e-06
1.31187e-06
1.29423e-06
1.26985e-06
1.23892e-06
1.2017e-06
1.15848e-06
1.10965e-06
1.05563e-06
9.96948e-07
9.34194e-07
8.68034e-07
7.99204e-07
7.28505e-07
6.56792e-07
5.84961e-07
5.13934e-07
4.44639e-07
3.77994e-07
3.14886e-07
2.56147e-07
2.02533e-07
1.54699e-07
1.13167e-07
7.82977e-08
5.02579e-08
2.8991e-08
1.41831e-08
5.21558e-09
1.06822e-09
7.18497e-11
3.26638e-06
7.84667e-06
1.17082e-05
1.52224e-05
1.84199e-05
2.13664e-05
2.40746e-05
2.6555e-05
2.88128e-05
3.08511e-05
3.26714e-05
3.42748e-05
3.56617e-05
3.68327e-05
3.7788e-05
3.8528e-05
3.90534e-05
3.93649e-05
3.94638e-05
3.93518e-05
3.90315e-05
3.85059e-05
3.77798e-05
3.68589e-05
3.57507e-05
3.44641e-05
3.30103e-05
3.14023e-05
2.96557e-05
2.77878e-05
2.58187e-05
2.37701e-05
2.1666e-05
1.95318e-05
1.73942e-05
1.52806e-05
1.32185e-05
1.12355e-05
9.35773e-06
7.61011e-06
6.0151e-06
4.59218e-06
3.3569e-06
2.32001e-06
1.48649e-06
8.54674e-07
4.15249e-07
1.49889e-07
2.84584e-08
1.10701e-09
2.16292e-05
5.43079e-05
8.11096e-05
0.000105271
0.000127284
0.000147557
0.000166198
0.000183274
0.000198819
0.000212852
0.000225385
0.000236422
0.000245968
0.000254025
0.000260596
0.000265682
0.000269289
0.00027142
0.000272086
0.000271299
0.000269074
0.000265434
0.000260411
0.000254045
0.000246387
0.000237499
0.000227458
0.000216354
0.000204294
0.000191399
0.000177806
0.000163666
0.000149144
0.000134416
0.000119665
0.000105082
9.08567e-05
7.71778e-05
6.42275e-05
5.2177e-05
4.11817e-05
3.13763e-05
2.28686e-05
1.57334e-05
1.00057e-05
5.67577e-06
2.68321e-06
9.10998e-07
1.52587e-07
5.41022e-09
7.18471e-05
0.000189647
0.000285933
0.000371274
0.000448646
0.000519734
0.000585075
0.000644925
0.000699411
0.000748597
0.000792518
0.000831192
0.000864631
0.000892843
0.000915834
0.000933612
0.000946192
0.000953592
0.000955841
0.000952983
0.000945075
0.000932194
0.000914453
0.000891991
0.000864987
0.000833662
0.000798283
0.00075917
0.000716696
0.000671288
0.000623429
0.000573652
0.000522537
0.000470703
0.000418798
0.00036749
0.000317449
0.000269341
0.000223807
0.000181451
0.000142822
0.000108399
7.85656e-05
5.35949e-05
3.3626e-05
1.86493e-05
8.48565e-06
2.7122e-06
4.25201e-07
1.47067e-08
0.000169629
0.000465056
0.000710843
0.000926333
0.0011201
0.0012972
0.00145962
0.00160825
0.0017435
0.00186556
0.00197452
0.00207044
0.00215333
0.00222323
0.00228014
0.00232409
0.0023551
0.00237322
0.00237852
0.00237111
0.00235112
0.00231876
0.0022743
0.00221808
0.00215055
0.00207225
0.00198386
0.00188617
0.00178011
0.00166675
0.00154728
0.00142305
0.0012955
0.00116618
0.00103671
0.000908743
0.000783973
0.000664058
0.000550603
0.000445124
0.000349007
0.000263467
0.000189502
0.000127844
7.89054e-05
4.27198e-05
1.8795e-05
5.77177e-06
8.77511e-07
3.00557e-08
0.000329121
0.000925542
0.00143418
0.00187946
0.00227717
0.00263838
0.00296834
0.00326962
0.00354342
0.00379032
0.00401061
0.00420441
0.00437181
0.00451283
0.00462753
0.00471593
0.00477809
0.00481412
0.00482414
0.00480836
0.00476708
0.00470067
0.00460969
0.00449485
0.00435704
0.00419737
0.0040172
0.00381814
0.00360208
0.0033712
0.00312795
0.00287504
0.00261543
0.00235225
0.00208883
0.00182856
0.00157488
0.00133117
0.00110074
0.000886707
0.000691942
0.000519008
0.000370046
0.000246668
0.000149797
7.94146e-05
3.40797e-05
1.02146e-05
1.52907e-06
5.21181e-08
0.000562289
0.00160784
0.0025211
0.00332478
0.00404042
0.00468681
0.00527459
0.00580953
0.00629465
0.00673148
0.0071208
0.00746301
0.00775832
0.00800685
0.00820868
0.00836389
0.0084726
0.00853495
0.0085512
0.00852169
0.00844694
0.00832762
0.0081647
0.00795942
0.00771336
0.0074285
0.00710724
0.00675244
0.00636748
0.00595621
0.005523
0.00507269
0.00461055
0.00414222
0.00367359
0.00321076
0.00275988
0.00232705
0.00191819
0.00153896
0.00119463
0.000889915
0.00062884
0.000414386
0.000248081
0.000129352
5.45544e-05
1.61101e-05
2.3905e-06
8.12479e-08
0.000878161
0.00253913
0.00401989
0.00533419
0.00650516
0.00755903
0.00851328
0.00937862
0.0101612
0.0108644
0.0114902
0.0120395
0.0125129
0.0129108
0.0132334
0.0134807
0.0136532
0.0137509
0.0137743
0.013724
0.0136007
0.0134055
0.0131401
0.0128062
0.0124066
0.0119444
0.0114234
0.0108483
0.0102245
0.00955832
0.00885678
0.00812776
0.00737982
0.00662213
0.00586432
0.00511633
0.00438822
0.00368998
0.00303136
0.00242169
0.00186972
0.00138336
0.000969276
0.000632222
0.000374042
0.000192589
8.02589e-05
2.34772e-05
3.46457e-06
1.17525e-07
0.0012824
0.00373617
0.00596054
0.00795391
0.00973538
0.0113363
0.0127813
0.0140871
0.0152645
0.0163198
0.0172571
0.0180783
0.018785
0.0193779
0.0198575
0.0202242
0.0204784
0.0206205
0.020651
0.0205709
0.0203813
0.0200838
0.0196808
0.019175
0.0185705
0.0178719
0.0170849
0.0162167
0.0152754
0.0142704
0.0132125
0.0121135
0.0109865
0.00984532
0.00870472
0.00757983
0.00648602
0.00543857
0.00445243
0.0035419
0.00272037
0.00199994
0.00139069
0.00089925
0.000526987
0.000268792
0.000111084
3.22907e-05
4.74782e-06
1.60821e-07
0.00177707
0.00520479
0.00835393
0.0112025
0.01376
0.016059
0.0181299
0.0199961
0.0216737
0.0231736
0.0245024
0.0256645
0.0266624
0.0274979
0.0281721
0.0286858
0.0290397
0.0292343
0.0292707
0.0291501
0.0288741
0.0284449
0.0278657
0.0271409
0.0262756
0.0252767
0.0241523
0.0229125
0.0215688
0.020135
0.0186262
0.0170596
0.0154538
0.013829
0.0122064
0.0106078
0.00905555
0.00757181
0.00617815
0.00489511
0.00374175
0.00273517
0.0018894
0.00121301
0.000705529
0.000357312
0.00014679
4.24858e-05
6.23137e-06
2.10877e-07
0.00236041
0.00693906
0.0111906
0.0150695
0.0185701
0.021722
0.024559
0.0271103
0.0293979
0.0314378
0.0332406
0.0348135
0.0361613
0.0372871
0.038193
0.0388805
0.0393508
0.0396051
0.0396446
0.0394711
0.0390867
0.0384945
0.0376989
0.0367055
0.0355214
0.0341559
0.0326202
0.0309277
0.0290946
0.0271392
0.0250827
0.0229486
0.0207626
0.0185526
0.0163477
0.0141784
0.0120756
0.01007
0.00819123
0.00646707
0.00492281
0.00358069
0.00245926
0.00156974
0.00090775
0.00045733
0.000187083
5.39799e-05
7.90132e-06
2.67138e-07
0.00302698
0.00892149
0.0144417
0.0195164
0.0241206
0.0282764
0.0320175
0.0353775
0.0383842
0.0410588
0.0434169
0.0454694
0.0472239
0.0486856
0.0498583
0.0507445
0.0513463
0.0516655
0.0517039
0.0514638
0.0509482
0.0501611
0.0491081
0.0477966
0.0462359
0.044438
0.0424177
0.0401926
0.037784
0.0352162
0.0325172
0.0297182
0.0268534
0.0239598
0.0210766
0.0182444
0.0155045
0.0128978
0.0104632
0.00823645
0.00624874
0.00452631
0.00309238
0.00196437
0.0011313
0.00056815
0.000231884
6.67903e-05
9.76018e-06
3.2928e-07
0.00376782
0.0111237
0.0180597
0.0244783
0.0303313
0.0356296
0.0404036
0.0446887
0.0485174
0.0519163
0.0549062
0.0575024
0.0597163
0.0615558
0.0630268
0.0641335
0.0648792
0.0652666
0.0652983
0.0649774
0.0643078
0.0632946
0.0619449
0.0602679
0.0582756
0.0559831
0.0534091
0.0505763
0.0475117
0.0442467
0.0408171
0.0372631
0.0336288
0.0299621
0.0263136
0.0227359
0.0192824
0.0160059
0.0129561
0.0101769
0.00770371
0.00556254
0.00378034
0.00239044
0.00137303
0.000689139
0.000281456
8.11537e-05
1.18697e-05
4.00986e-07
0.00457065
0.0135067
0.0219796
0.0298645
0.0370885
0.0436484
0.0495671
0.0548795
0.0596213
0.0638239
0.0675132
0.0707097
0.0734288
0.075682
0.0774779
0.0788228
0.0797217
0.0801786
0.0801971
0.0797814
0.0789363
0.0776682
0.0759859
0.0739008
0.0714276
0.068585
0.0653962
0.0618895
0.0580984
0.0540621
0.0498254
0.0454387
0.0409574
0.0364414
0.0319544
0.0275626
0.0233333
0.019333
0.0156237
0.0122586
0.00927394
0.00668342
0.00451742
0.0028434
0.00163135
0.000820749
0.000336559
9.73776e-05
1.42367e-05
4.78256e-07
0.00542044
0.0160231
0.0261215
0.0355635
0.0442518
0.0521657
0.0593176
0.0657395
0.0714683
0.0765393
0.0809833
0.0848256
0.0880865
0.0907816
0.0929226
0.0945187
0.0955767
0.0961023
0.0961006
0.095577
0.0945373
0.0929897
0.0909446
0.0884158
0.0854211
0.081983
0.0781298
0.0738956
0.0693213
0.0644546
0.0593503
0.0540699
0.0486812
0.0432574
0.0378766
0.0326196
0.0275691
0.0228072
0.0184117
0.0144495
0.010954
0.00787658
0.00529077
0.00332151
0.00191361
0.00097186
0.00040319
0.000118142
1.7385e-05
5.57286e-07
0.00629976
0.0186178
0.0303933
0.0414476
0.0516593
0.0609865
0.0694313
0.0770193
0.0837869
0.089772
0.0950095
0.0995296
0.103358
0.106513
0.109012
0.110867
0.112086
0.112678
0.112649
0.112006
0.110757
0.108911
0.106481
0.103482
0.0999363
0.0958703
0.0913174
0.0863183
0.0809216
0.0751843
0.0691717
0.0629572
0.0566218
0.0502531
0.0439438
0.0377902
0.0318911
0.0263458
0.021253
0.0167109
0.0141928
0.00961876
0.00649717
0.00413508
0.00246133
0.00131487
0.000588615
0.000196404
3.76394e-05
1.63203e-06
0.00718927
0.0212309
0.0346943
0.0473771
0.0591298
0.0698933
0.0796585
0.0884399
0.096272
0.103194
0.109245
0.114458
0.118865
0.122489
0.12535
0.127464
0.128844
0.129498
0.129436
0.128666
0.127197
0.12504
0.122211
0.118728
0.114616
0.109905
0.104635
0.0988523
0.0926146
0.0859882
0.0790494
0.0718841
0.0645869
0.0572598
0.0500107
0.042951
0.0361943
0.0298555
0.0240495
0.0188739
0.0158381
0.010772
0.0071699
0.00455261
0.00273572
0.00147979
0.000667961
0.000224333
4.28141e-05
1.70976e-06
0.00806828
0.0237989
0.0389187
0.0532025
0.0664748
0.0786619
0.0897367
0.099706
0.108599
0.116456
0.123318
0.129223
0.134205
0.138293
0.141512
0.143881
0.145414
0.146126
0.146025
0.145123
0.143431
0.140961
0.137731
0.133762
0.129082
0.123727
0.11774
0.111177
0.104102
0.0965923
0.0887342
0.0806268
0.0723782
0.064105
0.0559297
0.0479781
0.0403765
0.0332508
0.0267257
0.0208961
0.0173682
0.0117784
0.00778912
0.00495799
0.00300424
0.00163194
0.000736269
0.000249523
4.83638e-05
1.95956e-06
0.00891529
0.0262579
0.0429597
0.0587756
0.0735076
0.0870614
0.0993975
0.110517
0.120438
0.129201
0.136849
0.143423
0.148961
0.153498
0.15706
0.159672
0.161351
0.162113
0.161971
0.160937
0.159023
0.156246
0.152624
0.148181
0.14295
0.136968
0.130288
0.122969
0.115084
0.106721
0.097976
0.0889613
0.0797981
0.070617
0.0615549
0.0527514
0.0443453
0.0364719
0.0292654
0.0228325
0.0189023
0.0128228
0.00848516
0.0054261
0.00330284
0.00164826
0.000717392
0.000241075
4.39764e-05
1.35298e-06
0.0097085
0.0285451
0.0467135
0.0639517
0.0800421
0.0948677
0.108384
0.120579
0.131465
0.141079
0.149464
0.156666
0.162726
0.167681
0.171563
0.174399
0.176212
0.177018
0.176832
0.17567
0.173546
0.170477
0.166484
0.161594
0.155842
0.149272
0.141939
0.133911
0.125268
0.116105
0.106532
0.096671
0.0866558
0.0766305
0.0667454
0.0571533
0.0480054
0.0394477
0.0316249
0.0246623
0.0203757
0.0139102
0.00923498
0.00593098
0.00361511
0.00179801
0.000799762
0.00027154
5.06364e-05
1.67576e-06
0.0104266
0.0306009
0.0500827
0.0685955
0.0859049
0.101878
0.116453
0.129614
0.141374
0.151758
0.160811
0.16858
0.175111
0.180443
0.184612
0.187649
0.189579
0.190421
0.190193
0.188911
0.186593
0.183256
0.178925
0.173629
0.167405
0.160301
0.152378
0.143708
0.13438
0.124497
0.114177
0.103554
0.0927735
0.0819914
0.07137
0.0610743
0.0512668
0.0421042
0.033741
0.0263158
0.0216892
0.0149304
0.00993789
0.00639715
0.00390453
0.001942
0.000868806
0.000294404
5.62731e-05
1.89614e-06
0.0110493
0.0323715
0.0529794
0.0725855
0.0909417
0.107901
0.123386
0.137381
0.149892
0.160942
0.170572
0.178831
0.185767
0.191423
0.195839
0.199046
0.201074
0.201944
0.201676
0.200288
0.197799
0.194228
0.189602
0.183952
0.177318
0.169752
0.161317
0.152093
0.142174
0.131669
0.120707
0.109429
0.0979917
0.0865612
0.0753104
0.0644146
0.0540462
0.0443707
0.0355505
0.0277304
0.0227892
0.0158022
0.0105295
0.00678689
0.00415123
0.0020717
0.00093555
0.000322561
6.30538e-05
2.05299e-06
0.0115586
0.0338103
0.0553286
0.0758181
0.0950204
0.112778
0.129003
0.143668
0.156785
0.168376
0.178474
0.18713
0.194394
0.200311
0.204924
0.208267
0.210371
0.211261
0.210957
0.209479
0.206848
0.203085
0.198216
0.192277
0.185308
0.177364
0.168514
0.158839
0.148439
0.137431
0.125948
0.114141
0.102174
0.0902212
0.0784646
0.0670877
0.0562707
0.0461863
0.0370023
0.0288681
0.0236617
0.0165114
0.0110093
0.00710434
0.00435801
0.0021924
0.00099808
0.000350729
6.27127e-05
3.78349e-06
0.0119393
0.0348799
0.0570715
0.0782125
0.0980384
0.116384
0.133155
0.148315
0.161872
0.173857
0.184303
0.19325
0.200754
0.206861
0.211616
0.215056
0.217213
0.218113
0.217779
0.216232
0.213492
0.209583
0.204532
0.198376
0.191157
0.182933
0.173774
0.163765
0.15301
0.141631
0.129765
0.117569
0.105213
0.0928781
0.0807523
0.0690252
0.0578827
0.0475025
0.038057
0.0297001
0.0242902
0.0170616
0.0113882
0.00735606
0.00452464
0.00229145
0.00105876
0.000382063
7.24234e-05
4.6891e-06
0.0121829
0.0355627
0.058184
0.0797388
0.0999593
0.118676
0.135791
0.151262
0.165092
0.177319
0.18798
0.197111
0.204763
0.210986
0.215827
0.219324
0.221509
0.222412
0.222054
0.220458
0.217646
0.213641
0.208473
0.202176
0.194798
0.186395
0.177039
0.166819
0.15584
0.144226
0.13212
0.119681
0.107082
0.0945094
0.0821546
0.0702112
0.0588688
0.0483081
0.0387046
0.0302159
0.024654
0.0174398
0.0116574
0.00753443
0.0046403
0.00235787
0.00110784
0.000417003
0.000116669
1.129e-05
0.0122755
0.0358227
0.058607
0.0803163
0.100682
0.119533
0.13677
0.152349
0.166273
0.178578
0.189309
0.1985
0.206198
0.212456
0.21732
0.220829
0.223018
0.223913
0.22354
0.221921
0.219076
0.215031
0.209815
0.203463
0.196024
0.187553
0.178125
0.167827
0.156768
0.145071
0.13288
0.120357
0.107675
0.0950222
0.0825912
0.0705769
0.05917
0.0485525
0.0389008
0.0303733
0.0247117
0.0176072
0.01178
0.00761482
0.00469221
0.00238982
0.00113002
0.000437306
0.000132807
2.09546e-05
0.012217
0.0356586
0.0583366
0.0799376
0.100194
0.118938
0.136071
0.151553
0.165386
0.177609
0.188263
0.197386
0.205026
0.211235
0.216059
0.219537
0.221702
0.222583
0.222203
0.220584
0.217748
0.21372
0.208528
0.202208
0.194807
0.186383
0.177008
0.166769
0.155775
0.144148
0.132031
0.119584
0.106981
0.0944069
0.0820537
0.0701148
0.0587796
0.048229
0.0386384
0.0301646
0.0244556
0.0175323
0.0117272
0.00757836
0.00466641
0.00236639
0.00111291
0.000423412
0.000119283
1.28597e-05
0.0120082
0.0350722
0.0573745
0.0786038
0.0984982
0.116894
0.133699
0.148877
0.162438
0.174416
0.184849
0.193779
0.201259
0.207337
0.212058
0.215461
0.217578
0.218435
0.218057
0.216464
0.213678
0.209722
0.204626
0.198424
0.191162
0.182896
0.173698
0.163654
0.152869
0.141464
0.129578
0.117368
0.105004
0.0926668
0.0805448
0.0688273
0.0576996
0.0473394
0.037919
0.0295927
0.0239108
0.0172242
0.0115083
0.00743087
0.00456751
0.00229715
0.00106523
0.000389105
9.68775e-05
4.93569e-06
0.0116618
0.0340962
0.0557746
0.0763895
0.0956883
0.113516
0.129787
0.144475
0.157595
0.169176
0.179256
0.187884
0.195111
0.200984
0.205547
0.208835
0.21088
0.211707
0.211339
0.209795
0.207097
0.203266
0.198331
0.192325
0.185293
0.17729
0.168384
0.158659
0.148215
0.13717
0.125659
0.113832
0.101854
0.089899
0.0781489
0.0667867
0.0559922
0.0459374
0.0367903
0.0287036
0.0231156
0.0167288
0.0111653
0.00720072
0.00441337
0.00219802
0.00100566
0.00035589
8.35718e-05
3.85109e-06
0.0111803
0.0327349
0.053545
0.0733084
0.0917847
0.10883
0.124369
0.138391
0.150905
0.161944
0.171549
0.17977
0.186657
0.192256
0.196606
0.199743
0.201695
0.202486
0.202136
0.200664
0.198089
0.194433
0.189722
0.183989
0.177275
0.169634
0.161129
0.151842
0.141867
0.131317
0.12032
0.109018
0.0975672
0.0861348
0.0748934
0.0640174
0.0536788
0.0440425
0.0352705
0.0275133
0.0220894
0.0160727
0.0107218
0.00690543
0.00421805
0.0020795
0.000941764
0.000326769
6.44623e-05
2.16319e-06
0.0105806
0.0310289
0.0507483
0.0694449
0.0868937
0.102964
0.1176
0.130791
0.142555
0.152925
0.161946
0.169669
0.176141
0.181404
0.185497
0.18845
0.19029
0.191038
0.190714
0.189333
0.186914
0.183477
0.179047
0.173653
0.167336
0.160144
0.152138
0.143395
0.134002
0.124066
0.113705
0.103054
0.0922589
0.0814751
0.0708651
0.0605931
0.0508216
0.0417069
0.0334032
0.0260569
0.0208521
0.0152637
0.0101772
0.00654602
0.00398697
0.00194874
0.000874841
0.000297702
5.59307e-05
1.87086e-06
0.00988004
0.0290229
0.0474565
0.0648986
0.0811421
0.0960738
0.109656
0.121881
0.132772
0.142369
0.150717
0.157866
0.163859
0.168736
0.172532
0.175275
0.176988
0.177689
0.177396
0.176124
0.173888
0.170707
0.166603
0.161606
0.15575
0.149082
0.141658
0.133548
0.124834
0.115612
0.105994
0.096101
0.0860691
0.0760419
0.0661692
0.0566034
0.0474957
0.0389921
0.0312366
0.0243659
0.0194187
0.0142968
0.00952043
0.00611313
0.00371644
0.00180792
0.00080639
0.000275108
5.04372e-05
1.61788e-06
0.00909856
0.0267698
0.0437557
0.0597884
0.074682
0.0883465
0.10075
0.111902
0.121827
0.13057
0.138176
0.144691
0.150158
0.154611
0.158081
0.160592
0.162165
0.162816
0.162559
0.161407
0.159375
0.156479
0.15274
0.148182
0.14284
0.136754
0.129976
0.12257
0.11461
0.106183
0.0973896
0.0883411
0.0791597
0.0699761
0.0609265
0.0521503
0.0437863
0.0359694
0.0288326
0.0225001
0.0178772
0.0132118
0.00877078
0.00561397
0.0034107
0.0016582
0.00072434
0.000245259
4.50236e-05
1.36399e-06
0.00825755
0.0243288
0.0397425
0.0542489
0.0676855
0.0799844
0.0911269
0.101128
0.110023
0.117857
0.124674
0.130518
0.135425
0.139427
0.14255
0.144816
0.14624
0.146837
0.146619
0.145596
0.143782
0.14119
0.137839
0.133753
0.128959
0.123496
0.11741
0.110758
0.103605
0.0960292
0.0881205
0.0799778
0.0717099
0.0634332
0.05527
0.0473454
0.0397856
0.0327141
0.0262545
0.0205238
0.0163107
0.0121046
0.00801602
0.00510587
0.00309579
0.001678
0.000753319
0.000257785
5.08455e-05
2.11721e-06
0.007379
0.021763
0.0355213
0.0484255
0.06034
0.0712125
0.081043
0.0898537
0.0976851
0.104582
0.110587
0.115739
0.12007
0.123608
0.126374
0.128385
0.129656
0.130197
0.130017
0.129127
0.127537
0.12526
0.122311
0.118711
0.114486
0.109668
0.104298
0.0984264
0.0921105
0.0854187
0.0784289
0.0712279
0.0639106
0.0565793
0.0493412
0.0423072
0.0355898
0.0293023
0.0235622
0.0184929
0.0147517
0.0110728
0.00734425
0.00466073
0.00280954
0.00152427
0.000689083
0.000231909
4.43867e-05
1.77056e-06
0.00648484
0.0191375
0.0312002
0.042468
0.0528342
0.0622644
0.0707696
0.0783832
0.0851476
0.0911062
0.0962984
0.100758
0.104513
0.107585
0.109992
0.111747
0.112862
0.113344
0.113203
0.112444
0.111079
0.109116
0.10657
0.103458
0.0998038
0.0956347
0.0909859
0.0859001
0.0804275
0.0746266
0.0685641
0.0623144
0.0559589
0.0495853
0.0432859
0.0371566
0.0312957
0.0258037
0.0207895
0.0163783
0.0129952
0.0100156
0.00671492
0.00426026
0.0025482
0.00137094
0.000616523
0.000206012
3.91e-05
1.57091e-06
0.0055963
0.016517
0.0268874
0.036529
0.0453602
0.0533681
0.0605738
0.0670167
0.0727402
0.0777846
0.0821849
0.0859695
0.0891613
0.0917778
0.0938325
0.0953359
0.096296
0.0967195
0.0966123
0.0959809
0.0948323
0.0931757
0.0910226
0.0883882
0.0852915
0.0817568
0.0778136
0.0734978
0.068852
0.0639253
0.0587736
0.0534594
0.0480511
0.0426221
0.0372502
0.032016
0.0270025
0.0222941
0.0179819
0.0141657
0.0107637
0.007711
0.00517818
0.00324948
0.00187665
0.00095504
0.000396025
0.000116052
1.70392e-05
5.45294e-07
0.00473343
0.0139636
0.0226866
0.0307525
0.0381044
0.0447469
0.0507115
0.0560403
0.060775
0.0649518
0.0686003
0.0717436
0.0743994
0.076581
0.0782985
0.0795593
0.0803695
0.0807338
0.0806567
0.0801433
0.0791994
0.0778325
0.0760523
0.0738713
0.0713055
0.0683749
0.0651042
0.0615231
0.0576666
0.0535751
0.0492947
0.0448766
0.0403767
0.0358554
0.0313763
0.0270053
0.0228097
0.0188553
0.015208
0.0119493
0.00906869
0.00652905
0.00441965
0.00278772
0.00160403
0.000808063
0.000331429
9.58458e-05
1.40058e-05
4.71187e-07
0.00391442
0.0115345
0.0186935
0.0252711
0.0312346
0.0366028
0.0414143
0.0457113
0.0495317
0.0529065
0.0558594
0.0584082
0.060566
0.0623424
0.0637444
0.0647772
0.065445
0.065751
0.0656988
0.0652922
0.0645359
0.0634358
0.062
0.0602387
0.0581648
0.0557947
0.0531484
0.0502498
0.0471272
0.0438131
0.0403444
0.036762
0.0331108
0.0294389
0.0257971
0.0222382
0.0188161
0.0155823
0.0125825
0.00987486
0.00747977
0.00540226
0.00367801
0.00232806
0.00133899
0.00067241
0.000274546
7.90649e-05
1.15371e-05
3.88783e-07
0.00315519
0.00927972
0.0149924
0.0202016
0.0248978
0.0291102
0.0328806
0.0362486
0.0392466
0.0418995
0.0442253
0.046237
0.0479436
0.0493515
0.0504655
0.0512889
0.0518245
0.0520747
0.0520419
0.051729
0.0511397
0.0502788
0.0491527
0.0477694
0.0461393
0.0442753
0.0421932
0.0399118
0.0374534
0.0348434
0.0321105
0.0292868
0.026407
0.0235084
0.0206304
0.0178137
0.0151003
0.0125313
0.0101405
0.00796753
0.00603936
0.00437311
0.00298902
0.00189833
0.00109369
0.00054932
0.000224099
6.44678e-05
9.40248e-06
3.16833e-07
0.00246896
0.00724111
0.0116528
0.0156411
0.0192149
0.0224108
0.0252695
0.0278254
0.0301046
0.0321258
0.0339016
0.0354407
0.0367491
0.0378307
0.0386885
0.0393247
0.0397409
0.0399387
0.03992
0.0396869
0.0392422
0.0385897
0.0377341
0.0366818
0.0354408
0.034021
0.0324344
0.0306956
0.0288212
0.0268308
0.024746
0.0225911
0.0203924
0.0181778
0.0159768
0.0138198
0.0117379
0.00976257
0.00792031
0.00623845
0.00474027
0.0034435
0.002363
0.00150668
0.000870855
0.000438392
0.00017909
5.15552e-05
7.52104e-06
2.53426e-07
0.00186563
0.00544982
0.0087267
0.0116602
0.0142731
0.0166046
0.0186907
0.0205591
0.0222292
0.0237137
0.0250209
0.0261562
0.0271231
0.0279239
0.0285604
0.0290338
0.0293452
0.0294956
0.0294864
0.029319
0.0289957
0.0285191
0.0278929
0.0271218
0.0262117
0.0251699
0.0240055
0.0227289
0.0213526
0.0198908
0.0183594
0.016776
0.0151597
0.013531
0.0119111
0.0103219
0.00878553
0.00732464
0.00595932
0.00470882
0.00359061
0.00261916
0.00180588
0.00115723
0.000672047
0.000339686
0.000139196
4.01499e-05
5.86215e-06
1.97539e-07
0.00135155
0.00392608
0.00624734
0.00830307
0.0101243
0.0117478
0.0132028
0.0145093
0.0156804
0.0167238
0.0176446
0.0184458
0.0191292
0.0196962
0.0201476
0.0204842
0.0207067
0.0208158
0.0208123
0.0206973
0.0204724
0.0201395
0.0197012
0.0191609
0.0185228
0.017792
0.0169749
0.016079
0.015113
0.0140869
0.0130117
0.0118998
0.0107645
0.00962001
0.00848111
0.00736295
0.00628069
0.0052497
0.00428421
0.00339751
0.00260174
0.00190738
0.00132278
0.000853051
0.000498614
0.000253543
0.00010441
3.02168e-05
4.41852e-06
1.48917e-07
0.000929371
0.00267836
0.00422822
0.00558533
0.00678298
0.00785151
0.00881191
0.00967715
0.0104549
0.0111495
0.0117635
0.0122986
0.0127557
0.0131353
0.013438
0.0136643
0.0138144
0.013889
0.0138884
0.0138136
0.0136654
0.0134453
0.0131551
0.0127968
0.0123735
0.0118886
0.0113462
0.0107515
0.0101101
0.00942874
0.00871479
0.0079764
0.00722235
0.00646198
0.00570505
0.00496151
0.00424126
0.00355421
0.0029097
0.00231643
0.0017823
0.00131419
0.000917691
0.00059651
0.000351655
0.000180335
7.48131e-05
2.17648e-05
3.19042e-06
1.07563e-07
0.000597738
0.00170291
0.00266174
0.00349242
0.00422455
0.00487976
0.00547103
0.00600559
0.00648733
0.00691842
0.00730005
0.00763294
0.00791754
0.00815418
0.00834309
0.00848452
0.00857871
0.00862594
0.00862656
0.00858107
0.00849009
0.00835447
0.00817533
0.00795407
0.00769246
0.00739269
0.00705738
0.00668962
0.00629303
0.00587169
0.00543019
0.00497356
0.00450721
0.0040369
0.00356861
0.00310845
0.00266248
0.00223668
0.00183676
0.00146797
0.00113508
0.000842211
0.000592723
0.000388948
0.000231819
0.000120279
5.04488e-05
1.47983e-05
2.17793e-06
7.34745e-08
0.000351564
0.000984592
0.0015203
0.00198084
0.00238775
0.00275378
0.00308558
0.00338648
0.00365821
0.00390167
0.00411739
0.00430569
0.00446676
0.00460076
0.00470783
0.0047881
0.0048417
0.0048688
0.00486958
0.00484436
0.00479347
0.00471742
0.00461682
0.00449249
0.00434544
0.00417689
0.00398833
0.00378153
0.00355849
0.00332154
0.00307326
0.00281647
0.00255423
0.00228974
0.00202636
0.0017675
0.00151656
0.00127685
0.00105152
0.000843496
0.000655367
0.000489369
0.000347286
0.000230361
0.00013916
7.33494e-05
3.12709e-05
9.29705e-06
1.37782e-06
4.65367e-08
0.000182168
0.000497149
0.000756817
0.000979728
0.001178
0.00135744
0.00152072
0.00166912
0.00180327
0.00192355
0.00203017
0.00212325
0.0022029
0.00226919
0.00232219
0.00236196
0.00238856
0.00240209
0.00240264
0.00239036
0.00236543
0.00232809
0.00227865
0.00221752
0.0021452
0.00206229
0.00196953
0.0018678
0.00175808
0.00164152
0.00151939
0.00139308
0.00126409
0.001134
0.00100445
0.000877125
0.000753674
0.00063572
0.0005248
0.000422325
0.00032955
0.000247534
0.000177102
0.000118807
7.28854e-05
3.91991e-05
1.71153e-05
5.20558e-06
7.81713e-07
2.64676e-08
7.76421e-05
0.000203881
0.000305886
0.000394133
0.000473332
0.000545363
0.000611047
0.000670793
0.000724822
0.000773267
0.000816211
0.000853706
0.000885794
0.000912504
0.000933864
0.000949901
0.000960641
0.000966125
0.000966388
0.000961491
0.000951507
0.000936535
0.000916703
0.000892172
0.000863145
0.000829868
0.000792637
0.000751801
0.000707763
0.000660982
0.000611968
0.00056128
0.00050952
0.000457321
0.000405343
0.000354254
0.000304721
0.000257389
0.000212873
0.000171734
0.00013447
0.000101495
7.31277e-05
4.95684e-05
3.08859e-05
1.70008e-05
7.66924e-06
2.42419e-06
3.74374e-07
1.27572e-08
2.35626e-05
5.87834e-05
8.72353e-05
0.000112204
0.000134756
0.000155303
0.000174046
0.000191092
0.000206504
0.000220322
0.000232569
0.000243261
0.000252412
0.000260029
0.000266121
0.000270695
0.000273759
0.000275326
0.000275406
0.000274014
0.000271174
0.000266912
0.000261267
0.000254283
0.00024602
0.000236546
0.000225947
0.000214323
0.000201788
0.000188473
0.000174524
0.000160099
0.00014537
0.000130518
0.00011573
0.000101195
8.7104e-05
7.36395e-05
6.09756e-05
4.92718e-05
3.86686e-05
2.92828e-05
2.12026e-05
1.44826e-05
9.13786e-06
5.13881e-06
2.40584e-06
8.06601e-07
1.32647e-07
4.60972e-09
3.59663e-06
8.56205e-06
1.26675e-05
1.62986e-05
1.95801e-05
2.25686e-05
2.52933e-05
2.77707e-05
3.00103e-05
3.20178e-05
3.3797e-05
3.53502e-05
3.66792e-05
3.77854e-05
3.86699e-05
3.9334e-05
3.97787e-05
4.00059e-05
4.00169e-05
3.98142e-05
3.9401e-05
3.87815e-05
3.79609e-05
3.6946e-05
3.57451e-05
3.43686e-05
3.28287e-05
3.114e-05
2.93191e-05
2.73852e-05
2.53592e-05
2.32643e-05
2.11256e-05
1.89691e-05
1.68221e-05
1.47121e-05
1.26667e-05
1.07124e-05
8.87454e-06
7.17611e-06
5.63748e-06
4.27551e-06
3.10288e-06
2.1273e-06
1.35081e-06
7.68918e-07
3.6945e-07
1.31474e-07
2.43938e-08
9.18886e-10
1.22698e-07
2.88762e-07
4.27359e-07
5.4978e-07
6.60357e-07
7.61037e-07
8.52822e-07
9.36266e-07
1.01169e-06
1.0793e-06
1.13921e-06
1.19151e-06
1.23626e-06
1.2735e-06
1.30327e-06
1.32561e-06
1.34056e-06
1.34819e-06
1.34853e-06
1.34167e-06
1.32771e-06
1.30681e-06
1.27912e-06
1.2449e-06
1.2044e-06
1.15799e-06
1.10608e-06
1.04915e-06
9.87772e-07
9.22585e-07
8.54301e-07
7.83702e-07
7.11626e-07
6.3896e-07
5.66618e-07
4.95532e-07
4.26626e-07
3.60798e-07
2.98896e-07
2.41699e-07
1.8989e-07
1.44038e-07
1.04566e-07
7.17314e-08
4.55981e-08
2.60138e-08
1.25726e-08
4.55517e-09
9.09696e-10
5.83135e-11
7.66623e-08
1.84131e-09
9.89104e-11
7.02637e-12
4.72303e-13
2.85713e-14
2.18237e-15
1e-15
1e-15
1e-15
1e-15
1e-15
1e-15
1e-15
3.22684e-15
6.77906e-14
1.39001e-12
2.84271e-11
5.82797e-10
1.33634e-08
1.58502e-06
8.58431e-08
4.6092e-09
2.66105e-10
1.83502e-11
1.46428e-12
9.67812e-14
7.04324e-15
1e-15
1e-15
1e-15
1e-15
1.06049e-15
1.79173e-14
3.51545e-13
7.08389e-12
1.43558e-10
2.90866e-09
5.88425e-08
1.16584e-06
4.71264e-07
1.86435e-08
9.41125e-10
5.78033e-11
3.92205e-12
2.89744e-13
1.97919e-14
1.52899e-15
1e-15
1e-15
1e-15
1e-15
1e-15
4.11082e-15
7.74283e-14
1.5404e-12
3.10686e-11
6.30731e-10
1.29126e-08
2.87122e-07
4.33596e-11
6.75903e-10
3.3754e-09
9.26182e-09
1.89803e-08
3.28406e-08
5.08352e-08
7.26789e-08
9.78559e-08
1.25668e-07
1.5529e-07
1.85824e-07
2.16364e-07
2.46042e-07
2.74078e-07
2.99813e-07
3.2274e-07
3.42509e-07
3.58938e-07
3.71999e-07
3.81811e-07
3.88611e-07
3.92739e-07
3.94607e-07
3.94677e-07
3.93437e-07
3.9138e-07
3.88996e-07
3.86747e-07
3.85069e-07
3.84368e-07
3.85015e-07
3.87355e-07
3.91703e-07
3.9836e-07
4.07602e-07
4.19685e-07
4.34849e-07
4.53307e-07
4.75245e-07
5.00812e-07
5.30113e-07
5.63192e-07
6.00021e-07
6.40488e-07
6.8438e-07
7.31388e-07
7.81099e-07
8.3302e-07
8.86596e-07
9.41244e-07
9.96381e-07
1.05145e-06
1.10591e-06
1.1593e-06
1.21117e-06
1.26113e-06
1.30884e-06
1.35403e-06
1.39646e-06
1.43598e-06
1.47247e-06
1.50588e-06
1.53621e-06
1.56352e-06
1.5879e-06
1.60946e-06
1.62836e-06
1.64476e-06
1.65885e-06
1.67079e-06
1.68076e-06
1.68894e-06
1.69548e-06
1.70052e-06
1.70419e-06
1.7066e-06
1.70785e-06
1.70802e-06
1.70718e-06
1.70539e-06
1.70268e-06
1.6991e-06
1.6947e-06
1.68952e-06
1.6836e-06
1.67701e-06
1.66981e-06
1.66207e-06
1.65391e-06
1.64542e-06
1.63673e-06
1.62797e-06
1.61926e-06
1.61076e-06
1.60263e-06
1.59506e-06
1.58835e-06
1.58295e-06
1.57954e-06
6.83212e-10
1.8124e-08
9.73868e-08
2.72014e-07
5.60953e-07
9.73301e-07
1.50882e-06
2.159e-06
2.90841e-06
3.73625e-06
4.6179e-06
5.52667e-06
6.43551e-06
7.31862e-06
8.15276e-06
8.91838e-06
9.60033e-06
1.01883e-05
1.06767e-05
1.1065e-05
1.13566e-05
1.15585e-05
1.1681e-05
1.17363e-05
1.17381e-05
1.17011e-05
1.16397e-05
1.15687e-05
1.15018e-05
1.14519e-05
1.14311e-05
1.14505e-05
1.15202e-05
1.16498e-05
1.1848e-05
1.21231e-05
1.24829e-05
1.29342e-05
1.34837e-05
1.41366e-05
1.48976e-05
1.57697e-05
1.67542e-05
1.78504e-05
1.90549e-05
2.03613e-05
2.17604e-05
2.324e-05
2.47854e-05
2.63799e-05
2.80064e-05
2.96472e-05
3.12859e-05
3.29067e-05
3.44953e-05
3.60385e-05
3.75251e-05
3.89447e-05
4.02891e-05
4.15517e-05
4.27274e-05
4.3813e-05
4.48071e-05
4.57096e-05
4.65221e-05
4.72473e-05
4.78888e-05
4.84512e-05
4.89392e-05