/*--------------------------------*- C++ -*----------------------------------*\
| =========                 |                                                 |
| \\      /  F ield         | foam-extend: Open Source CFD                    |
|  \\    /   O peration     | Version:     4.0                                |
|   \\  /    A nd           | Web:         http://www.foam-extend.org         |
|    \\/     M anipulation  |                                                 |
\*---------------------------------------------------------------------------*/
FoamFile
{
    version     2.0;
    format      ascii;
    class       volScalarField;
    location    "0.0016";
    object      nut;
}
// * * * * * * * * * * * * * * * * * * * * * * * * * * * * * * * * * * * * * //

dimensions      [0 2 -1 0 0 0 0];

internalField   nonuniform List<scalar> 
28770
(
5.88605e-15
1.40071e-14
2.09431e-14
2.72492e-14
3.29793e-14
3.82619e-14
4.31161e-14
4.75617e-14
5.16084e-14
5.52615e-14
5.85241e-14
6.1398e-14
6.38841e-14
6.59832e-14
6.76959e-14
6.90229e-14
6.99653e-14
7.05246e-14
7.0703e-14
7.05037e-14
6.99311e-14
6.89907e-14
6.76911e-14
6.60426e-14
6.40583e-14
6.17546e-14
5.91513e-14
5.62718e-14
5.31437e-14
4.97985e-14
4.62717e-14
4.26027e-14
3.8834e-14
3.50112e-14
3.11822e-14
2.7396e-14
2.37021e-14
2.01495e-14
1.67854e-14
1.36543e-14
1.07963e-14
8.24646e-15
6.03254e-15
4.17377e-15
2.67907e-15
1.54541e-15
7.5605e-16
2.78024e-16
5.69432e-17
3.83005e-18
1.20976e-12
2.46307e-12
3.62475e-12
4.7059e-12
5.69328e-12
6.60375e-12
7.44073e-12
8.2073e-12
8.90511e-12
9.53507e-12
1.00977e-11
1.05932e-11
1.10219e-11
1.13838e-11
1.1679e-11
1.19078e-11
1.20701e-11
1.21664e-11
1.21969e-11
1.21623e-11
1.20633e-11
1.19009e-11
1.16765e-11
1.13919e-11
1.10493e-11
1.06517e-11
1.02024e-11
9.7054e-12
9.16555e-12
8.58827e-12
7.97966e-12
7.34652e-12
6.69621e-12
6.0366e-12
5.37593e-12
4.72267e-12
4.08537e-12
3.47247e-12
2.89213e-12
2.35199e-12
1.85903e-12
1.41925e-12
1.03745e-12
7.16961e-13
4.59292e-13
2.63873e-13
1.27647e-13
4.45813e-14
6.42215e-15
6.15446e-17
3.18382e-11
5.33943e-11
7.47741e-11
9.58334e-11
1.15549e-10
1.33857e-10
1.50735e-10
1.66209e-10
1.80302e-10
1.93025e-10
2.04389e-10
2.14398e-10
2.23054e-10
2.3036e-10
2.36318e-10
2.40931e-10
2.44201e-10
2.46134e-10
2.46738e-10
2.46024e-10
2.44006e-10
2.40705e-10
2.3615e-10
2.30377e-10
2.23432e-10
2.15372e-10
2.06266e-10
1.96197e-10
1.8526e-10
1.73567e-10
1.6124e-10
1.48417e-10
1.35248e-10
1.21891e-10
1.08515e-10
9.52897e-11
8.23891e-11
6.9984e-11
5.82392e-11
4.73097e-11
3.73363e-11
2.84403e-11
2.0718e-11
1.42342e-11
9.01486e-12
5.04045e-12
2.25115e-12
6.05976e-13
4.69535e-14
3.00782e-16
3.14332e-10
4.40034e-10
5.76171e-10
7.19417e-10
8.59097e-10
9.91356e-10
1.11443e-09
1.22776e-09
1.33118e-09
1.42464e-09
1.50814e-09
1.5817e-09
1.6453e-09
1.69897e-09
1.74271e-09
1.77653e-09
1.80046e-09
1.81454e-09
1.81882e-09
1.81338e-09
1.79833e-09
1.77381e-09
1.74005e-09
1.69731e-09
1.64592e-09
1.58631e-09
1.51899e-09
1.44456e-09
1.36373e-09
1.27732e-09
1.18625e-09
1.09152e-09
9.94248e-10
8.95603e-10
7.96818e-10
6.99161e-10
6.03908e-10
5.12319e-10
4.25606e-10
3.44908e-10
2.71248e-10
2.05505e-10
1.48356e-10
1.00238e-10
6.13404e-11
3.17467e-11
1.19058e-11
2.33808e-12
1.36143e-13
8.17621e-16
1.76537e-09
2.17263e-09
2.6673e-09
3.22178e-09
3.787e-09
4.33729e-09
4.85792e-09
5.34178e-09
5.78555e-09
6.1877e-09
6.54754e-09
6.8647e-09
7.13902e-09
7.37042e-09
7.55888e-09
7.70442e-09
7.80712e-09
7.86713e-09
7.88465e-09
7.86004e-09
7.79376e-09
7.68644e-09
7.53901e-09
7.35261e-09
7.1287e-09
6.86911e-09
6.57604e-09
6.25214e-09
5.90047e-09
5.52457e-09
5.12843e-09
4.71645e-09
4.29341e-09
3.86443e-09
3.43485e-09
3.01015e-09
2.59585e-09
2.19738e-09
1.81992e-09
1.46834e-09
1.14696e-09
8.59482e-10
6.08842e-10
3.9743e-10
2.27908e-10
1.04751e-10
3.27025e-11
5.32075e-12
2.82502e-13
1.67095e-15
6.87147e-09
7.8049e-09
9.09185e-09
1.06208e-08
1.2245e-08
1.38743e-08
1.54482e-08
1.69308e-08
1.83022e-08
1.95516e-08
2.06729e-08
2.1663e-08
2.25201e-08
2.32431e-08
2.38317e-08
2.42855e-08
2.46046e-08
2.47894e-08
2.48404e-08
2.47587e-08
2.45458e-08
2.42035e-08
2.37347e-08
2.3143e-08
2.24329e-08
2.16103e-08
2.06819e-08
1.96562e-08
1.85429e-08
1.73529e-08
1.6099e-08
1.47949e-08
1.34558e-08
1.20976e-08
1.07372e-08
9.39178e-09
8.07846e-09
6.81411e-09
5.61485e-09
4.49567e-09
3.47026e-09
2.5512e-09
1.7509e-09
1.08429e-09
5.71685e-10
2.33571e-10
6.4265e-11
9.58369e-12
4.92743e-13
2.89751e-15
2.07705e-08
2.2529e-08
2.52231e-08
2.85997e-08
3.23194e-08
3.61576e-08
3.99464e-08
4.35728e-08
4.69648e-08
5.00782e-08
5.28865e-08
5.53738e-08
5.75306e-08
5.93515e-08
6.0833e-08
6.19734e-08
6.2772e-08
6.3229e-08
6.33456e-08
6.31241e-08
6.25677e-08
6.16814e-08
6.04722e-08
5.8949e-08
5.71234e-08
5.50099e-08
5.26261e-08
4.9993e-08
4.71352e-08
4.4081e-08
4.08622e-08
3.75142e-08
3.40751e-08
3.05856e-08
2.70881e-08
2.36259e-08
2.02422e-08
1.69795e-08
1.3879e-08
1.09802e-08
8.32297e-09
5.95016e-09
3.91375e-09
2.2783e-09
1.10739e-09
4.14076e-10
1.06001e-10
1.51933e-11
7.70516e-13
4.51698e-15
5.24261e-08
5.54232e-08
6.02372e-08
6.66193e-08
7.388e-08
8.15631e-08
8.93046e-08
9.68359e-08
1.03968e-07
1.10575e-07
1.16573e-07
1.21908e-07
1.26548e-07
1.30469e-07
1.3366e-07
1.36111e-07
1.37818e-07
1.3878e-07
1.38998e-07
1.38475e-07
1.37218e-07
1.35236e-07
1.32545e-07
1.29164e-07
1.25117e-07
1.20436e-07
1.15158e-07
1.0933e-07
1.03005e-07
9.62448e-08
8.91179e-08
8.17015e-08
7.40785e-08
6.63372e-08
5.85697e-08
5.08703e-08
4.3334e-08
3.60562e-08
2.91333e-08
2.26666e-08
1.67708e-08
1.15835e-08
7.26872e-09
3.98797e-09
1.81655e-09
6.41067e-10
1.57788e-10
2.21796e-11
1.11679e-12
6.53379e-15
1.15648e-07
1.20353e-07
1.28194e-07
1.38987e-07
1.5159e-07
1.65216e-07
1.79199e-07
1.93015e-07
2.06263e-07
2.18656e-07
2.29989e-07
2.40125e-07
2.48969e-07
2.56459e-07
2.62552e-07
2.67222e-07
2.70452e-07
2.72233e-07
2.72563e-07
2.71445e-07
2.68891e-07
2.64916e-07
2.59547e-07
2.52821e-07
2.44784e-07
2.35496e-07
2.25029e-07
2.13473e-07
2.00929e-07
1.87517e-07
1.73371e-07
1.58639e-07
1.43482e-07
1.28073e-07
1.12593e-07
9.72275e-08
8.21732e-08
6.76341e-08
5.38329e-08
4.10242e-08
2.95112e-08
1.96475e-08
1.17879e-08
6.1568e-09
2.67709e-09
9.11461e-10
2.19479e-10
3.05262e-11
1.53048e-12
8.94083e-15
2.29965e-07
2.37016e-07
2.48939e-07
2.65693e-07
2.85679e-07
3.07684e-07
3.30631e-07
3.5362e-07
3.75926e-07
3.96996e-07
4.16413e-07
4.33877e-07
4.49174e-07
4.62154e-07
4.72713e-07
4.80778e-07
4.86303e-07
4.89259e-07
4.89629e-07
4.87412e-07
4.82621e-07
4.75279e-07
4.65429e-07
4.5313e-07
4.38463e-07
4.2153e-07
4.02457e-07
3.81398e-07
3.58535e-07
3.34077e-07
3.0826e-07
2.8135e-07
2.53635e-07
2.25428e-07
1.97063e-07
1.68898e-07
1.41325e-07
1.14776e-07
8.97505e-08
6.68331e-08
4.66943e-08
3.00207e-08
1.73327e-08
8.71998e-09
3.6733e-09
1.223e-09
2.90704e-10
4.01761e-11
2.00873e-12
1.17237e-14
4.20978e-07
4.31334e-07
4.48718e-07
4.7278e-07
5.02228e-07
5.35191e-07
5.70045e-07
6.05389e-07
6.40054e-07
6.73093e-07
7.03766e-07
7.31509e-07
7.55903e-07
7.76638e-07
7.93492e-07
8.06304e-07
8.14961e-07
8.19388e-07
8.19537e-07
8.15389e-07
8.06946e-07
7.94237e-07
7.77321e-07
7.56286e-07
7.31256e-07
7.0239e-07
6.69893e-07
6.34013e-07
5.95043e-07
5.5333e-07
5.09266e-07
4.63296e-07
4.15912e-07
3.67663e-07
3.19152e-07
2.71057e-07
2.24143e-07
1.79299e-07
1.37551e-07
1.00057e-07
6.8011e-08
4.24182e-08
2.37501e-08
1.16277e-08
4.79491e-09
1.57378e-09
3.71012e-10
5.10553e-11
2.54708e-12
1.48516e-14
7.19699e-07
7.3476e-07
7.588e-07
7.9184e-07
8.3279e-07
8.7921e-07
9.2886e-07
9.79737e-07
1.0301e-06
1.07849e-06
1.12372e-06
1.16483e-06
1.2011e-06
1.23197e-06
1.257e-06
1.27589e-06
1.28841e-06
1.29438e-06
1.2937e-06
1.28629e-06
1.27214e-06
1.25126e-06
1.22373e-06
1.18965e-06
1.1492e-06
1.10261e-06
1.05019e-06
9.92322e-07
9.29449e-07
8.62114e-07
7.90944e-07
7.16663e-07
6.40093e-07
5.62179e-07
4.84001e-07
4.06809e-07
3.32056e-07
2.6142e-07
1.96771e-07
1.40043e-07
9.2946e-08
5.65583e-08
3.09242e-08
1.48478e-08
6.03673e-09
1.96361e-09
4.60534e-10
6.31923e-11
3.14639e-12
1.83064e-14
1.16086e-06
1.18299e-06
1.21513e-06
1.2589e-06
1.31308e-06
1.3751e-06
1.44205e-06
1.51126e-06
1.58031e-06
1.64712e-06
1.70991e-06
1.76723e-06
1.81792e-06
1.86104e-06
1.89588e-06
1.92187e-06
1.9386e-06
1.94573e-06
1.94304e-06
1.93036e-06
1.90761e-06
1.87476e-06
1.83188e-06
1.7791e-06
1.71665e-06
1.64484e-06
1.56409e-06
1.47496e-06
1.37813e-06
1.2744e-06
1.16477e-06
1.05038e-06
9.32606e-07
8.13053e-07
6.93611e-07
5.76499e-07
4.64284e-07
3.59828e-07
2.66108e-07
1.85852e-07
1.21014e-07
7.22713e-08
3.88013e-08
1.83674e-08
7.40048e-09
2.39606e-09
5.60789e-10
7.68752e-11
3.8271e-12
2.22928e-14
1.77975e-06
1.81316e-06
1.85546e-06
1.91212e-06
1.98044e-06
2.05948e-06
2.1455e-06
2.23506e-06
2.32499e-06
2.41248e-06
2.49507e-06
2.5707e-06
2.63764e-06
2.69448e-06
2.74008e-06
2.77353e-06
2.79412e-06
2.80128e-06
2.79457e-06
2.77369e-06
2.73841e-06
2.68863e-06
2.62437e-06
2.54575e-06
2.45303e-06
2.34663e-06
2.22713e-06
2.09528e-06
1.95209e-06
1.79878e-06
1.63687e-06
1.4682e-06
1.29501e-06
1.11996e-06
9.46239e-07
7.77541e-07
6.18016e-07
4.72048e-07
3.43795e-07
2.36529e-07
1.51901e-07
8.95509e-08
4.74224e-08
2.22245e-08
8.9168e-09
2.88816e-09
6.77041e-10
9.27754e-11
4.59804e-12
2.65887e-14
2.60754e-06
2.65942e-06
2.7147e-06
2.78611e-06
2.86972e-06
2.96648e-06
3.07232e-06
3.18308e-06
3.29485e-06
3.40403e-06
3.50741e-06
3.60222e-06
3.68606e-06
3.75693e-06
3.81316e-06
3.85338e-06
3.87644e-06
3.88145e-06
3.86767e-06
3.83452e-06
3.7816e-06
3.70864e-06
3.61555e-06
3.50242e-06
3.36952e-06
3.21736e-06
3.04671e-06
2.85864e-06
2.65458e-06
2.43639e-06
2.20639e-06
1.96748e-06
1.72322e-06
1.47789e-06
1.23652e-06
1.00482e-06
7.88919e-07
5.94877e-07
4.27879e-07
2.9127e-07
1.85522e-07
1.08382e-07
5.67971e-08
2.65129e-08
1.0696e-08
3.50857e-09
8.34869e-10
1.15769e-10
5.71709e-12
3.09824e-14
3.66519e-06
3.74711e-06
3.81952e-06
3.90772e-06
4.00834e-06
4.12251e-06
4.24763e-06
4.37898e-06
4.51194e-06
4.64217e-06
4.76566e-06
4.87886e-06
4.97866e-06
5.06234e-06
5.1276e-06
5.17248e-06
5.19532e-06
5.19474e-06
5.16957e-06
5.1189e-06
5.04199e-06
4.93834e-06
4.80768e-06
4.64999e-06
4.46554e-06
4.25495e-06
4.01923e-06
3.75989e-06
3.479e-06
3.17931e-06
2.86436e-06
2.53858e-06
2.20744e-06
1.87743e-06
1.556e-06
1.25129e-06
9.71603e-07
7.24573e-07
5.16141e-07
3.49586e-07
2.60614e-07
1.42442e-07
7.57562e-08
3.63379e-08
1.54494e-08
5.49426e-09
1.48187e-09
2.54786e-10
1.87365e-11
1.35522e-13
4.95673e-06
5.08585e-06
5.18148e-06
5.28956e-06
5.4097e-06
5.53985e-06
5.68223e-06
5.83192e-06
5.98366e-06
6.13239e-06
6.27337e-06
6.40226e-06
6.51519e-06
6.60867e-06
6.67969e-06
6.72558e-06
6.74405e-06
6.7331e-06
6.69103e-06
6.61643e-06
6.50813e-06
6.36529e-06
6.18736e-06
5.97416e-06
5.72593e-06
5.44344e-06
5.12803e-06
4.78182e-06
4.40779e-06
4.00998e-06
3.5936e-06
3.16522e-06
2.7328e-06
2.30562e-06
1.89399e-06
1.50868e-06
1.16002e-06
8.56755e-07
6.04869e-07
4.06187e-07
2.97909e-07
1.6316e-07
8.54074e-08
4.09199e-08
1.76233e-08
6.3788e-09
1.74305e-09
3.00309e-10
2.12552e-11
1.37822e-13
6.46336e-06
6.66265e-06
6.78976e-06
6.92147e-06
7.06195e-06
7.20916e-06
7.36592e-06
7.53024e-06
7.69658e-06
7.85941e-06
8.01334e-06
8.15332e-06
8.27468e-06
8.37321e-06
8.44508e-06
8.48686e-06
8.49549e-06
8.46828e-06
8.40283e-06
8.29713e-06
8.14945e-06
7.95847e-06
7.72331e-06
7.44356e-06
7.11944e-06
6.75188e-06
6.34274e-06
5.89495e-06
5.41273e-06
4.90185e-06
4.36975e-06
3.82567e-06
3.28064e-06
2.74717e-06
2.23862e-06
1.76831e-06
1.34816e-06
9.8745e-07
6.91517e-07
4.60439e-07
3.33376e-07
1.81957e-07
9.45765e-08
4.54715e-08
1.97903e-08
7.20779e-09
1.9708e-09
3.41517e-10
2.43176e-11
1.58219e-13
8.13958e-06
8.43648e-06
8.60517e-06
8.76518e-06
8.92755e-06
9.09358e-06
9.26137e-06
9.4354e-06
9.61082e-06
9.78182e-06
9.94259e-06
1.00875e-05
1.02111e-05
1.03085e-05
1.03751e-05
1.04066e-05
1.03992e-05
1.03492e-05
1.02536e-05
1.01095e-05
9.91463e-06
9.66708e-06
9.36552e-06
9.0093e-06
8.59862e-06
8.13469e-06
7.62e-06
7.05859e-06
6.4563e-06
5.82103e-06
5.16294e-06
4.49446e-06
3.83005e-06
3.18564e-06
2.57764e-06
2.02157e-06
1.5305e-06
1.11357e-06
7.75011e-07
5.13136e-07
3.69159e-07
2.01531e-07
1.04796e-07
5.06737e-08
2.22185e-08
7.05506e-09
1.84771e-09
3.14564e-10
2.07345e-11
7.98553e-14
9.91305e-06
1.03358e-05
1.05568e-05
1.07502e-05
1.0936e-05
1.11202e-05
1.12995e-05
1.14781e-05
1.16564e-05
1.18288e-05
1.19895e-05
1.21323e-05
1.22513e-05
1.23409e-05
1.23956e-05
1.24104e-05
1.23806e-05
1.23016e-05
1.21696e-05
1.19809e-05
1.17324e-05
1.14215e-05
1.10466e-05
1.06066e-05
1.01018e-05
9.53375e-06
8.90582e-06
8.22337e-06
7.49417e-06
6.72865e-06
5.94006e-06
5.14426e-06
4.35932e-06
3.60454e-06
2.89906e-06
2.26018e-06
1.70159e-06
1.23181e-06
8.53646e-07
5.63559e-07
4.03926e-07
2.21961e-07
1.158e-07
5.62798e-08
2.47443e-08
7.84598e-09
2.10729e-09
3.64088e-10
2.4413e-11
9.90624e-14
1.16889e-05
1.22611e-05
1.25437e-05
1.27746e-05
1.29852e-05
1.31861e-05
1.33783e-05
1.35584e-05
1.37334e-05
1.39008e-05
1.40545e-05
1.41885e-05
1.42963e-05
1.43718e-05
1.44087e-05
1.44013e-05
1.43439e-05
1.42312e-05
1.40584e-05
1.38209e-05
1.35149e-05
1.31371e-05
1.26854e-05
1.21585e-05
1.15568e-05
1.08823e-05
1.01393e-05
9.33473e-06
8.47852e-06
7.58384e-06
6.66714e-06
5.74779e-06
4.84734e-06
3.98815e-06
3.19167e-06
2.47646e-06
1.85631e-06
1.33885e-06
9.25196e-07
6.09881e-07
4.35598e-07
2.41491e-07
1.26348e-07
6.15901e-08
2.71364e-08
8.60804e-09
2.32335e-09
3.99061e-10
2.72263e-11
1.12095e-13
1.33583e-05
1.40921e-05
1.44414e-05
1.47119e-05
1.49473e-05
1.51636e-05
1.53652e-05
1.55489e-05
1.5717e-05
1.58741e-05
1.60156e-05
1.61354e-05
1.62271e-05
1.62838e-05
1.62989e-05
1.62658e-05
1.6178e-05
1.60295e-05
1.58143e-05
1.55273e-05
1.51638e-05
1.472e-05
1.41931e-05
1.35818e-05
1.28865e-05
1.21099e-05
1.12573e-05
1.03371e-05
9.3616e-06
8.3466e-06
7.31168e-06
6.27949e-06
5.27468e-06
4.32223e-06
3.44536e-06
2.66343e-06
1.98994e-06
1.43145e-06
9.87382e-07
6.50348e-07
4.62894e-07
2.58763e-07
1.3564e-07
6.62865e-08
2.93065e-08
9.34332e-09
2.54756e-09
4.45659e-10
3.11461e-11
1.22242e-13
1.48091e-05
1.57e-05
1.61142e-05
1.64227e-05
1.66812e-05
1.69107e-05
1.71187e-05
1.7306e-05
1.74684e-05
1.76122e-05
1.77383e-05
1.78413e-05
1.79144e-05
1.79507e-05
1.79429e-05
1.78837e-05
1.7766e-05
1.7583e-05
1.7328e-05
1.69951e-05
1.6579e-05
1.60752e-05
1.54807e-05
1.47939e-05
1.40154e-05
1.31484e-05
1.21994e-05
1.11782e-05
1.00992e-05
8.98052e-06
7.84459e-06
6.71683e-06
5.62446e-06
4.59448e-06
3.65142e-06
2.81498e-06
2.09826e-06
1.50667e-06
1.03815e-06
6.83657e-07
4.85207e-07
2.73423e-07
1.43642e-07
7.04436e-08
3.13325e-08
1.01231e-08
2.79689e-09
5.0346e-10
3.0218e-11
3.1725e-13
1.59389e-05
1.69625e-05
1.74317e-05
1.77718e-05
1.80491e-05
1.82889e-05
1.8501e-05
1.86881e-05
1.88486e-05
1.89809e-05
1.90916e-05
1.91782e-05
1.92339e-05
1.92514e-05
1.92231e-05
1.91411e-05
1.89978e-05
1.87857e-05
1.84977e-05
1.81272e-05
1.76683e-05
1.71162e-05
1.64674e-05
1.57205e-05
1.48761e-05
1.39379e-05
1.29132e-05
1.18133e-05
1.06539e-05
9.45528e-06
8.24198e-06
7.04156e-06
5.88311e-06
4.79509e-06
3.80282e-06
2.92616e-06
2.17772e-06
1.56199e-06
1.0757e-06
7.08593e-07
5.0173e-07
2.85274e-07
1.50356e-07
7.40749e-08
3.32217e-08
1.09216e-08
3.10186e-09
5.80046e-10
3.64329e-11
3.96641e-13
1.66736e-05
1.77889e-05
1.82964e-05
1.86582e-05
1.89479e-05
1.91942e-05
1.94084e-05
1.95945e-05
1.97521e-05
1.98786e-05
1.99776e-05
2.00515e-05
2.00942e-05
2.0098e-05
2.00549e-05
1.99568e-05
1.97956e-05
1.95635e-05
1.9253e-05
1.8857e-05
1.83693e-05
1.77849e-05
1.71001e-05
1.63134e-05
1.54256e-05
1.44407e-05
1.33666e-05
1.22155e-05
1.10041e-05
9.75402e-06
8.49118e-06
7.24447e-06
6.04419e-06
4.91963e-06
3.89657e-06
2.99489e-06
2.22684e-06
1.59625e-06
1.0991e-06
7.24353e-07
5.11515e-07
2.93687e-07
1.55359e-07
7.68883e-08
3.4769e-08
1.16417e-08
3.45722e-09
7.13991e-10
9.03389e-11
2.04843e-12
1.69386e-05
1.80882e-05
1.86102e-05
1.89795e-05
1.92733e-05
1.95213e-05
1.97356e-05
1.99205e-05
2.00761e-05
2.02003e-05
2.02944e-05
2.03627e-05
2.04e-05
2.03981e-05
2.03489e-05
2.02443e-05
2.00761e-05
1.98362e-05
1.95169e-05
1.91113e-05
1.86128e-05
1.80165e-05
1.73185e-05
1.65173e-05
1.56138e-05
1.46123e-05
1.35206e-05
1.23513e-05
1.11217e-05
9.85376e-06
8.57381e-06
7.31126e-06
6.09677e-06
4.95993e-06
3.92663e-06
3.01672e-06
2.2423e-06
1.60698e-06
1.10643e-06
7.29336e-07
5.13183e-07
2.97522e-07
1.57731e-07
7.82581e-08
3.55677e-08
1.2037e-08
3.6804e-09
8.34168e-10
1.37411e-10
1.0607e-11
1.67132e-05
1.78328e-05
1.83416e-05
1.87026e-05
1.89909e-05
1.92353e-05
1.94475e-05
1.96314e-05
1.97867e-05
1.99108e-05
2.00075e-05
2.00793e-05
2.01199e-05
2.01216e-05
2.00763e-05
1.99761e-05
1.98128e-05
1.95785e-05
1.92658e-05
1.88677e-05
1.83779e-05
1.77914e-05
1.71046e-05
1.6316e-05
1.54264e-05
1.44399e-05
1.33643e-05
1.22119e-05
1.09995e-05
9.74874e-06
8.48548e-06
7.23865e-06
6.0385e-06
4.91431e-06
3.8918e-06
2.99079e-06
2.22347e-06
1.59364e-06
1.09722e-06
7.23122e-07
5.06458e-07
2.95912e-07
1.56772e-07
7.7693e-08
3.52276e-08
1.17707e-08
3.52674e-09
7.5195e-10
9.70092e-11
2.80631e-12
1.6018e-05
1.70487e-05
1.75192e-05
1.7857e-05
1.81309e-05
1.83669e-05
1.8575e-05
1.87579e-05
1.89138e-05
1.90414e-05
1.91478e-05
1.92302e-05
1.92819e-05
1.92954e-05
1.92629e-05
1.91768e-05
1.90295e-05
1.88133e-05
1.85212e-05
1.81466e-05
1.76836e-05
1.71275e-05
1.64749e-05
1.57243e-05
1.48765e-05
1.39351e-05
1.29076e-05
1.18054e-05
1.06441e-05
9.44421e-06
8.23017e-06
7.02956e-06
5.87145e-06
4.78421e-06
3.79307e-06
2.91778e-06
2.17084e-06
1.55663e-06
1.0718e-06
7.06032e-07
4.9223e-07
2.8913e-07
1.52721e-07
7.53644e-08
3.38943e-08
1.10468e-08
3.16641e-09
6.04499e-10
5.90973e-11
4.21009e-13
1.49246e-05
1.58234e-05
1.62377e-05
1.65418e-05
1.6795e-05
1.70188e-05
1.72209e-05
1.74019e-05
1.75578e-05
1.76952e-05
1.78155e-05
1.79127e-05
1.79801e-05
1.80107e-05
1.79971e-05
1.79322e-05
1.78088e-05
1.762e-05
1.73593e-05
1.70207e-05
1.65989e-05
1.60895e-05
1.54896e-05
1.47976e-05
1.40143e-05
1.3143e-05
1.219e-05
1.11657e-05
1.0084e-05
8.96359e-06
7.82667e-06
6.69872e-06
5.60689e-06
4.57811e-06
3.63675e-06
2.80237e-06
2.08788e-06
1.49856e-06
1.03221e-06
6.79761e-07
4.71849e-07
2.78432e-07
1.46571e-07
7.19575e-08
3.20584e-08
1.02218e-08
2.84436e-09
5.16302e-10
4.77633e-11
3.23079e-13
1.34984e-05
1.42404e-05
1.45889e-05
1.48536e-05
1.50824e-05
1.52916e-05
1.54858e-05
1.5662e-05
1.58224e-05
1.59722e-05
1.61066e-05
1.62196e-05
1.63043e-05
1.63542e-05
1.63625e-05
1.63225e-05
1.62278e-05
1.60723e-05
1.58502e-05
1.55563e-05
1.5186e-05
1.47355e-05
1.42021e-05
1.35846e-05
1.28835e-05
1.21015e-05
1.12442e-05
1.03201e-05
9.34154e-06
8.3244e-06
7.28832e-06
6.25595e-06
5.25189e-06
4.30098e-06
3.42632e-06
2.64702e-06
1.97643e-06
1.42087e-06
9.7961e-07
6.45256e-07
4.4622e-07
2.64713e-07
1.39008e-07
6.79482e-08
3.0039e-08
9.42699e-09
2.58009e-09
4.55256e-10
3.23332e-11
1.32454e-13
1.18442e-05
1.24234e-05
1.27043e-05
1.29285e-05
1.31316e-05
1.33246e-05
1.35087e-05
1.36804e-05
1.38473e-05
1.40069e-05
1.41532e-05
1.42796e-05
1.438e-05
1.4448e-05
1.44774e-05
1.44625e-05
1.43975e-05
1.42772e-05
1.40968e-05
1.38517e-05
1.35381e-05
1.3153e-05
1.2694e-05
1.21603e-05
1.15521e-05
1.08717e-05
1.01234e-05
9.31449e-06
8.45483e-06
7.55773e-06
6.6397e-06
5.72014e-06
4.82051e-06
3.96308e-06
3.16912e-06
2.45697e-06
1.8402e-06
1.32622e-06
9.15937e-07
6.03882e-07
4.1614e-07
2.48443e-07
1.30251e-07
6.34734e-08
2.79214e-08
8.67212e-09
2.34841e-09
4.04824e-10
2.71091e-11
1.10607e-13
1.00732e-05
1.05012e-05
1.07198e-05
1.09059e-05
1.10839e-05
1.126e-05
1.14309e-05
1.16012e-05
1.17716e-05
1.19364e-05
1.20895e-05
1.22248e-05
1.23363e-05
1.24183e-05
1.24654e-05
1.24725e-05
1.24349e-05
1.23482e-05
1.22083e-05
1.20118e-05
1.17555e-05
1.1437e-05
1.10546e-05
1.06074e-05
1.00959e-05
9.52168e-06
8.88828e-06
8.20119e-06
7.4683e-06
6.70018e-06
5.91011e-06
5.114e-06
4.32987e-06
3.57689e-06
2.87406e-06
2.23846e-06
1.68353e-06
1.21759e-06
8.43167e-07
5.56788e-07
3.82173e-07
2.29721e-07
1.20223e-07
5.84366e-08
2.56357e-08
7.92134e-09
2.13331e-09
3.70031e-10
2.43412e-11
9.56416e-14
8.29514e-06
8.59512e-06
8.76091e-06
8.91375e-06
9.0685e-06
9.22673e-06
9.3866e-06
9.55303e-06
9.72114e-06
9.88498e-06
1.00386e-05
1.01764e-05
1.02929e-05
1.03831e-05
1.04424e-05
1.04665e-05
1.04515e-05
1.0394e-05
1.02907e-05
1.0139e-05
9.93654e-06
9.6815e-06
9.37263e-06
9.00938e-06
8.59206e-06
8.12202e-06
7.60187e-06
7.0358e-06
6.42976e-06
5.79179e-06
5.13211e-06
4.46319e-06
3.79946e-06
3.15677e-06
2.55135e-06
1.99855e-06
1.51122e-06
1.09823e-06
7.63552e-07
5.05666e-07
3.4623e-07
2.09272e-07
1.09171e-07
5.28616e-08
2.31529e-08
7.13567e-09
1.87855e-09
3.23244e-10
2.14736e-11
8.06155e-14
6.60655e-06
6.80697e-06
6.93101e-06
7.056e-06
7.18951e-06
7.32967e-06
7.4795e-06
7.63721e-06
7.79714e-06
7.95362e-06
8.10121e-06
8.23482e-06
8.34974e-06
8.44172e-06
8.50692e-06
8.54192e-06
8.54366e-06
8.50946e-06
8.43695e-06
8.32415e-06
8.16939e-06
7.97142e-06
7.72942e-06
7.44308e-06
7.11271e-06
6.73937e-06
6.32503e-06
5.87276e-06
5.38691e-06
4.87334e-06
4.33958e-06
3.79493e-06
3.25039e-06
2.71841e-06
2.21224e-06
1.74501e-06
1.32844e-06
9.71517e-07
6.79328e-07
4.52236e-07
3.1004e-07
1.88667e-07
9.81879e-08
4.72652e-08
2.06096e-08
7.49481e-09
2.04578e-09
3.59999e-10
2.63002e-11
1.74058e-13
5.08201e-06
5.21078e-06
5.30348e-06
5.40565e-06
5.51982e-06
5.644e-06
5.78067e-06
5.9249e-06
6.07128e-06
6.21468e-06
6.3503e-06
6.47376e-06
6.58114e-06
6.66896e-06
6.73416e-06
6.77411e-06
6.78652e-06
6.76939e-06
6.72106e-06
6.64016e-06
6.52556e-06
6.37647e-06
6.19242e-06
5.9733e-06
5.71945e-06
5.43172e-06
5.11159e-06
4.76126e-06
4.38384e-06
3.98346e-06
3.56543e-06
3.13636e-06
2.70422e-06
2.27824e-06
1.86866e-06
1.48608e-06
1.14065e-06
8.40883e-07
5.92616e-07
3.97989e-07
2.743e-07
1.69436e-07
8.83503e-08
4.23284e-08
1.83082e-08
6.65385e-09
1.82114e-09
3.13423e-10
2.21082e-11
1.4272e-13
3.76955e-06
3.85024e-06
3.92008e-06
4.00341e-06
4.09919e-06
4.20866e-06
4.32933e-06
4.45638e-06
4.5851e-06
4.71107e-06
4.83024e-06
4.93901e-06
5.03424e-06
5.11322e-06
5.17363e-06
5.21352e-06
5.23125e-06
5.22543e-06
5.19495e-06
5.13891e-06
5.05662e-06
4.94763e-06
4.81173e-06
4.64895e-06
4.45964e-06
4.24451e-06
4.00467e-06
3.7417e-06
3.45779e-06
3.15576e-06
2.83922e-06
2.51269e-06
2.18162e-06
1.8525e-06
1.53272e-06
1.23032e-06
9.5347e-07
7.09668e-07
5.04887e-07
3.42629e-07
2.35273e-07
1.50055e-07
7.9158e-08
3.78734e-08
1.6212e-08
5.82531e-09
1.5844e-09
2.72606e-10
1.93858e-11
1.26913e-13
2.69032e-06
2.74064e-06
2.79387e-06
2.86151e-06
2.94145e-06
3.03474e-06
3.1373e-06
3.24486e-06
3.35343e-06
3.45936e-06
3.55942e-06
3.65077e-06
3.73101e-06
3.79814e-06
3.85048e-06
3.88668e-06
3.90561e-06
3.90637e-06
3.88825e-06
3.85073e-06
3.7934e-06
3.71606e-06
3.61866e-06
3.50134e-06
3.36442e-06
3.20849e-06
3.03439e-06
2.84327e-06
2.63663e-06
2.4164e-06
2.18496e-06
1.94528e-06
1.70093e-06
1.45619e-06
1.21608e-06
9.86231e-07
7.72708e-07
5.81496e-07
4.1789e-07
2.8555e-07
1.82299e-07
1.06104e-07
5.55884e-08
2.5938e-08
1.04894e-08
3.44785e-09
8.20032e-10
1.1372e-10
5.60338e-12
3.03157e-14
1.84223e-06
1.87413e-06
1.91495e-06
1.96889e-06
2.03462e-06
2.11126e-06
2.195e-06
2.28231e-06
2.36996e-06
2.45509e-06
2.53523e-06
2.60827e-06
2.67249e-06
2.72648e-06
2.76909e-06
2.79944e-06
2.81682e-06
2.82067e-06
2.81059e-06
2.78627e-06
2.74754e-06
2.69432e-06
2.62666e-06
2.54474e-06
2.44885e-06
2.33945e-06
2.21719e-06
2.08289e-06
1.93759e-06
1.78258e-06
1.61944e-06
1.45004e-06
1.27665e-06
1.10196e-06
9.29125e-07
7.61823e-07
6.0415e-07
4.60385e-07
3.34649e-07
2.30561e-07
1.48539e-07
8.74825e-08
4.63961e-08
2.17893e-08
8.76749e-09
2.84352e-09
6.66719e-10
9.1316e-11
4.52347e-12
2.61957e-14
1.20563e-06
1.22653e-06
1.25771e-06
1.29963e-06
1.35216e-06
1.41264e-06
1.47811e-06
1.54583e-06
1.61335e-06
1.67853e-06
1.73959e-06
1.79506e-06
1.84378e-06
1.88482e-06
1.91746e-06
1.94116e-06
1.9555e-06
1.96017e-06
1.95496e-06
1.93971e-06
1.91437e-06
1.87895e-06
1.83351e-06
1.77824e-06
1.71339e-06
1.63931e-06
1.55646e-06
1.46545e-06
1.36698e-06
1.26191e-06
1.15128e-06
1.03626e-06
9.18245e-07
7.98859e-07
6.79999e-07
5.63882e-07
4.53058e-07
3.50307e-07
2.58436e-07
1.80336e-07
1.17497e-07
7.01889e-08
3.7751e-08
1.78881e-08
7.21703e-09
2.33789e-09
5.4702e-10
7.48965e-11
3.71986e-12
2.16144e-14
7.50023e-07
7.64209e-07
7.87714e-07
8.19634e-07
8.59616e-07
9.05134e-07
9.53896e-07
1.00386e-06
1.05324e-06
1.10057e-06
1.14464e-06
1.1845e-06
1.21941e-06
1.24882e-06
1.27231e-06
1.28958e-06
1.30041e-06
1.30463e-06
1.30215e-06
1.29292e-06
1.27693e-06
1.2542e-06
1.22484e-06
1.18897e-06
1.1468e-06
1.09857e-06
1.04464e-06
9.85391e-07
9.21318e-07
8.52987e-07
7.81052e-07
7.0626e-07
6.29454e-07
5.5159e-07
4.73755e-07
3.97206e-07
3.23401e-07
2.53992e-07
1.90704e-07
1.3547e-07
8.98316e-08
5.4644e-08
2.98905e-08
1.43487e-08
5.83608e-09
1.89853e-09
4.45072e-10
6.09949e-11
3.03107e-12
1.76144e-14
4.40285e-07
4.50095e-07
4.67247e-07
4.90711e-07
5.19666e-07
5.52161e-07
5.86535e-07
6.21359e-07
6.55441e-07
6.87823e-07
7.1776e-07
7.44688e-07
7.68189e-07
7.87961e-07
8.03788e-07
8.15515e-07
8.23039e-07
8.2629e-07
8.2523e-07
8.19848e-07
8.10158e-07
7.96201e-07
7.78047e-07
7.558e-07
7.29597e-07
6.99616e-07
6.6608e-07
6.29254e-07
5.89453e-07
5.47041e-07
5.0243e-07
4.56079e-07
4.08496e-07
3.60236e-07
3.11912e-07
2.64201e-07
2.17876e-07
1.73825e-07
1.33001e-07
9.65197e-08
6.54891e-08
4.0793e-08
2.28205e-08
1.11606e-08
4.60003e-09
1.50861e-09
3.5516e-10
4.87619e-11
2.42449e-12
1.40893e-14
2.41412e-07
2.48173e-07
2.60048e-07
2.76549e-07
2.96334e-07
3.18138e-07
3.40859e-07
3.63578e-07
3.85562e-07
4.06249e-07
4.25224e-07
4.4219e-07
4.56935e-07
4.69314e-07
4.79228e-07
4.8661e-07
4.9142e-07
4.93632e-07
4.93236e-07
4.90237e-07
4.84654e-07
4.76519e-07
4.65882e-07
4.52812e-07
4.37397e-07
4.1975e-07
4.00011e-07
3.78343e-07
3.54941e-07
3.30025e-07
3.03845e-07
2.76674e-07
2.48809e-07
2.20569e-07
1.92295e-07
1.64346e-07
1.37111e-07
1.1103e-07
8.65716e-08
6.42898e-08
4.48081e-08
2.87474e-08
1.65666e-08
8.31898e-09
3.49897e-09
1.16267e-09
2.75665e-10
3.79672e-11
1.88971e-12
1.09822e-14
1.21883e-07
1.26472e-07
1.34364e-07
1.45089e-07
1.57647e-07
1.71213e-07
1.85109e-07
1.988e-07
2.11883e-07
2.24068e-07
2.35155e-07
2.45006e-07
2.53531e-07
2.60671e-07
2.66387e-07
2.70657e-07
2.73467e-07
2.74812e-07
2.74691e-07
2.73113e-07
2.70092e-07
2.6565e-07
2.59817e-07
2.52634e-07
2.44155e-07
2.34444e-07
2.23581e-07
2.1166e-07
1.98793e-07
1.85105e-07
1.70736e-07
1.5584e-07
1.40584e-07
1.25142e-07
1.097e-07
9.44455e-08
7.95719e-08
6.52854e-08
5.1799e-08
3.93518e-08
2.82243e-08
1.87382e-08
1.12122e-08
5.84049e-09
2.53295e-09
8.5975e-10
2.06292e-10
2.85656e-11
1.42433e-12
8.27905e-15
5.54844e-08
5.8464e-08
6.33599e-08
6.97564e-08
7.70355e-08
8.47191e-08
9.24373e-08
9.99183e-08
1.06973e-07
1.13476e-07
1.19346e-07
1.24532e-07
1.29002e-07
1.32738e-07
1.35727e-07
1.37964e-07
1.39446e-07
1.40174e-07
1.40149e-07
1.39379e-07
1.37871e-07
1.35638e-07
1.32697e-07
1.29069e-07
1.24783e-07
1.19873e-07
1.1438e-07
1.08354e-07
1.01853e-07
9.49401e-08
8.76893e-08
8.018e-08
7.24978e-08
6.47329e-08
5.6979e-08
4.93309e-08
4.18828e-08
3.47295e-08
2.79641e-08
2.16814e-08
1.59866e-08
1.10043e-08
6.88188e-09
3.76271e-09
1.70783e-09
6.00278e-10
1.47082e-10
2.05619e-11
1.02842e-12
5.97997e-15
2.20807e-08
2.38626e-08
2.66306e-08
3.0042e-08
3.37923e-08
3.76462e-08
4.14343e-08
4.50433e-08
4.84025e-08
5.1469e-08
5.42178e-08
5.66346e-08
5.87113e-08
6.04436e-08
6.18291e-08
6.28672e-08
6.35582e-08
6.39031e-08
6.39039e-08
6.35639e-08
6.28873e-08
6.18803e-08
6.05509e-08
5.89094e-08
5.69686e-08
5.47447e-08
5.22569e-08
4.95279e-08
4.65841e-08
4.34555e-08
4.01756e-08
3.67811e-08
3.33114e-08
2.9808e-08
2.6314e-08
2.2873e-08
1.95278e-08
1.63201e-08
1.32897e-08
1.04737e-08
7.90808e-09
5.6312e-09
3.68897e-09
2.13844e-09
1.0348e-09
3.85034e-10
9.80238e-11
1.39561e-11
7.01999e-13
4.08482e-15
7.34012e-09
8.30295e-09
9.63782e-09
1.11937e-08
1.28397e-08
1.44812e-08
1.60583e-08
1.7536e-08
1.88952e-08
2.0126e-08
2.12234e-08
2.21848e-08
2.30092e-08
2.3696e-08
2.42452e-08
2.46571e-08
2.49321e-08
2.50709e-08
2.50744e-08
2.49441e-08
2.46817e-08
2.42897e-08
2.37714e-08
2.31308e-08
2.23732e-08
2.15048e-08
2.05334e-08
1.94678e-08
1.83185e-08
1.70973e-08
1.58175e-08
1.44935e-08
1.31409e-08
1.17761e-08
1.04161e-08
9.07817e-09
7.77931e-09
6.53603e-09
5.36378e-09
4.27658e-09
3.28683e-09
2.40551e-09
1.64321e-09
1.0126e-09
5.31089e-10
2.15732e-10
5.89683e-11
8.72279e-12
4.44e-13
2.58721e-15
1.89587e-09
2.32257e-09
2.83981e-09
3.40749e-09
3.98276e-09
4.53871e-09
5.06128e-09
5.54394e-09
5.9839e-09
6.38007e-09
6.73207e-09
7.03981e-09
7.30335e-09
7.52279e-09
7.69827e-09
7.82996e-09
7.91805e-09
7.96284e-09
7.96462e-09
7.92387e-09
7.84118e-09
7.71735e-09
7.55344e-09
7.35076e-09
7.11097e-09
6.83609e-09
6.52855e-09
6.19123e-09
5.82744e-09
5.44095e-09
5.03597e-09
4.6171e-09
4.1893e-09
3.75779e-09
3.32799e-09
2.90542e-09
2.49553e-09
2.10361e-09
1.73463e-09
1.39313e-09
1.08302e-09
8.07507e-10
5.69004e-10
3.69339e-10
2.1052e-10
9.61182e-11
2.97799e-11
4.7988e-12
2.51661e-13
1.47147e-15
3.39685e-10
4.73061e-10
6.16377e-10
7.63712e-10
9.06367e-10
1.04024e-09
1.16391e-09
1.27701e-09
1.37954e-09
1.47159e-09
1.55323e-09
1.62454e-09
1.68557e-09
1.73638e-09
1.77702e-09
1.80753e-09
1.82796e-09
1.83839e-09
1.83889e-09
1.82957e-09
1.81057e-09
1.78208e-09
1.74434e-09
1.69765e-09
1.64242e-09
1.57909e-09
1.50824e-09
1.43054e-09
1.34674e-09
1.25771e-09
1.16444e-09
1.06798e-09
9.69478e-10
8.7014e-10
7.71216e-10
6.7398e-10
5.79695e-10
4.89586e-10
4.04814e-10
3.26438e-10
2.55386e-10
1.92417e-10
1.38087e-10
9.27077e-11
5.63418e-11
2.89404e-11
1.07603e-11
2.0898e-12
1.19869e-13
7.09238e-16
3.46841e-11
5.77946e-11
8.04213e-11
1.02144e-10
1.22332e-10
1.40884e-10
1.57852e-10
1.73299e-10
1.87271e-10
1.99799e-10
2.10904e-10
2.206e-10
2.28897e-10
2.35805e-10
2.41329e-10
2.45477e-10
2.48256e-10
2.49677e-10
2.49748e-10
2.48486e-10
2.4591e-10
2.42046e-10
2.36926e-10
2.30593e-10
2.23099e-10
2.14508e-10
2.04897e-10
1.94355e-10
1.82988e-10
1.70913e-10
1.58263e-10
1.45182e-10
1.31825e-10
1.18357e-10
1.04946e-10
9.17651e-11
7.89862e-11
6.67754e-11
5.52904e-11
4.46756e-11
3.50579e-11
2.65427e-11
1.92086e-11
1.31026e-11
8.23292e-12
4.56359e-12
2.01844e-12
5.36534e-13
4.08174e-14
2.56278e-16
1.33207e-12
2.68763e-12