/*--------------------------------*- C++ -*----------------------------------*\
| =========                 |                                                 |
| \\      /  F ield         | foam-extend: Open Source CFD                    |
|  \\    /   O peration     | Version:     4.0                                |
|   \\  /    A nd           | Web:         http://www.foam-extend.org         |
|    \\/     M anipulation  |                                                 |
\*---------------------------------------------------------------------------*/
FoamFile
{
    version     2.0;
    format      ascii;
    class       volScalarField;
    location    "0.0016";
    object      omega;
}
// * * * * * * * * * * * * * * * * * * * * * * * * * * * * * * * * * * * * * //

dimensions      [0 0 -1 0 0 0 0];

internalField   nonuniform List<scalar> 
28770
(
1.87595e+07
1.87595e+07
1.87595e+07
1.87595e+07
1.87595e+07
1.87595e+07
1.87595e+07
1.87595e+07
1.87595e+07
1.87595e+07
1.87595e+07
1.87595e+07
1.87595e+07
1.87595e+07
1.87595e+07
1.87595e+07
1.87595e+07
1.87595e+07
1.87595e+07
1.87595e+07
1.87595e+07
1.87595e+07
1.87595e+07
1.87595e+07
1.87595e+07
1.87595e+07
1.87595e+07
1.87595e+07
1.87595e+07
1.87595e+07
1.87595e+07
1.87595e+07
1.87595e+07
1.87595e+07
1.87595e+07
1.87595e+07
1.87595e+07
1.87595e+07
1.87595e+07
1.87595e+07
1.87595e+07
1.87595e+07
1.87595e+07
1.87595e+07
1.87595e+07
1.87595e+07
1.87595e+07
1.87595e+07
1.87595e+07
1.87595e+07
2.70003e+06
3.18573e+06
3.23008e+06
3.23475e+06
3.23538e+06
3.23549e+06
3.23552e+06
3.23553e+06
3.23554e+06
3.23554e+06
3.23554e+06
3.23554e+06
3.23554e+06
3.23554e+06
3.23554e+06
3.23554e+06
3.23554e+06
3.23554e+06
3.23554e+06
3.23555e+06
3.23555e+06
3.23555e+06
3.23555e+06
3.23555e+06
3.23555e+06
3.23555e+06
3.23555e+06
3.23555e+06
3.23556e+06
3.23556e+06
3.23556e+06
3.23556e+06
3.23557e+06
3.23557e+06
3.23557e+06
3.23558e+06
3.23558e+06
3.23558e+06
3.23559e+06
3.2356e+06
3.23562e+06
3.23564e+06
3.23571e+06
3.23589e+06
3.23648e+06
3.23896e+06
3.2531e+06
3.36215e+06
4.4313e+06
1.79872e+07
679347
1.01711e+06
1.08473e+06
1.09848e+06
1.10156e+06
1.10235e+06
1.10259e+06
1.10267e+06
1.1027e+06
1.10272e+06
1.10272e+06
1.10273e+06
1.10273e+06
1.10273e+06
1.10273e+06
1.10273e+06
1.10273e+06
1.10273e+06
1.10273e+06
1.10273e+06
1.10273e+06
1.10273e+06
1.10274e+06
1.10274e+06
1.10274e+06
1.10274e+06
1.10274e+06
1.10274e+06
1.10274e+06
1.10274e+06
1.10274e+06
1.10275e+06
1.10275e+06
1.10275e+06
1.10276e+06
1.10276e+06
1.10278e+06
1.10279e+06
1.10282e+06
1.10288e+06
1.10299e+06
1.10323e+06
1.10381e+06
1.10532e+06
1.10992e+06
1.12604e+06
1.19193e+06
1.50336e+06
3.24975e+06
1.79872e+07
228571
430982
496264
516076
522230
524266
524997
525284
525407
525464
525492
525507
525515
525520
525523
525525
525526
525527
525528
525529
525530
525530
525531
525532
525533
525534
525536
525538
525540
525543
525547
525553
525560
525572
525589
525615
525658
525729
525854
526085
526537
527475
529576
534674
548187
587442
712736
1.16001e+06
3.12318e+06
1.79872e+07
96086.8
214052
266503
287522
295774
299081
300462
301071
301354
301494
301567
301606
301629
301642
301651
301656
301660
301662
301664
301666
301668
301669
301671
301672
301674
301677
301680
301684
301690
301697
301707
301721
301742
301773
301820
301893
302010
302205
302542
303148
304287
306541
311250
321676
346216
407822
574726
1.08477e+06
3.10621e+06
1.79872e+07
47896.7
118585
157744
176960
185967
190162
192148
193117
193606
193863
194003
194082
194129
194158
194176
194187
194195
194201
194205
194209
194212
194215
194218
194221
194225
194230
194237
194246
194257
194273
194295
194327
194372
194439
194541
194698
194948
195356
196042
197236
199392
203437
211346
227494
262028
340002
530300
1.06583e+06
3.10319e+06
1.79872e+07
27071.6
71367.6
99951.9
116252
125015
129622
132041
133329
134029
134419
134643
134775
134855
134906
134938
134959
134974
134985
134993
134999
135005
135010
135016
135022
135030
135039
135052
135068
135090
135120
135161
135220
135306
135430
135616
135900
136343
137051
138209
140158
143534
149561
160674
181884
224022
312387
514658
1.06034e+06
3.10247e+06
1.79872e+07
16750.5
45813.6
66734.3
80069.6
88050.4
92677.1
95328.6
96850.7
97733.6
98254
98566.7
98758.7
98879.2
98956.7
99007.7
99042.3
99066.4
99083.9
99097.2
99108.1
99117.6
99126.8
99136.4
99147.2
99160.2
99176.5
99197.4
99225
99262
99312.6
99382.7
99481.1
99621.6
99825.3
100126
100576
101265
102340
104052
106839
111487
119425
133349
158532
205908
300420
508651
1.05851e+06
3.10225e+06
1.79872e+07
11088.8
31043.4
46496.1
57227.7
64221.9
68615.3
71324.3
72984.6
74004.9
74637.2
75034.1
75287.1
75451.2
75559.6
75632.7
75683.2
75719.1
75745.6
75766.1
75782.9
75797.8
75812.2
75827.3
75844.4
75864.9
75890.4
75923.2
75966.3
76023.8
76101.9
76209.3
76358.9
76570.1
76872.5
77311.8
77959.7
78931.1
80411.6
82708.4
86336.9
92180.8
101791
117977
146058
196851
294903
506128
1.0578e+06
3.10217e+06
1.79872e+07
7727.55
21959.6
33558.1
42163.4
48165.8
52193
54834.1
56546.8
57654.2
58372.4
58841.7
59151.5
59358.8
59499.5
59596.8
59665.4
59715.1
59752.3
59781.5
59805.8
59827.6
59848.8
59871.2
59896.4
59926.6
59964.1
60012.1
60074.9
60158.3
60270.5
60423.6
60634.7
60929.3
61345.7
61941.6
62805.7
64076
65970.2
68837
73243.8
80133
91109.4
109007
139107
192070
292160
504947
1.05749e+06
3.10214e+06
1.79872e+07
5606.97
16087.4
24939.1
31874.2
36975.4
40587.4
43082.6
44781.5
45930.4
46706.5
47232.5
47591.4
47838.6
48010.9
48132.8
48220.7
48285.5
48335
48374.4
48407.7
48437.8
48467.3
48498.5
48533.8
48575.9
48628.1
48694.6
48780.9
48894.9
49047.1
49252.7
49533.4
49920.7
50460.8
51222.1
52307.8
53874.5
56163.3
59550.6
64634.1
72382.5
84414
103547
135000
189315
290593
504251
1.05728e+06
3.10211e+06
1.79872e+07
4205.9
12142
19032.2
24646.8
28963.6
32161.1
34469.7
36109.2
37262.5
38070.6
38636.8
39035.1
39317.1
39518.6
39664.5
39771.8
39852.6
39915.2
39966
40009.4
40049.1
40088.4
40130
40177.2
40233.3
40302.6
40390.3
40503.6
40652.1
40848.7
41111.9
41467.5
41952.3
42619.5
43546.6
44847.6
46692.5
49337.4
53174.3
58813.9
67229.8
80029
99998.9
132300
187402
289340
503511
1.05694e+06
3.10203e+06
1.79872e+07
3245.71
9403.01
14862.3
19444.2
23099.3
25910.6
28018.2
29570.5
30701.1
31519.5
32110.6
32538.2
32848.8
33076
33244.1
33370.3
33467.1
33543.5
33606.3
33660.8
33711.3
33761.4
33814.9
33875.4
33947.3
34035.6
34147
34289.8
34475.6
34719.6
35043.2
35475.9
36059
36851.4
37937.1
39437.8
41531.5
44482.1
48687.2
54758.2
63659.5
76967.4
97428.2
130146
185532
287614
501893
1.05566e+06
3.10148e+06
1.79872e+07
2568.15
7449.3
11845.9
15618.5
18727.4
21193.9
23102.8
24553.9
25643.7
26455.7
27058.6
27506
27838.8
28087.8
28275.8
28419.7
28532
28622.1
28697.4
28763.7
28825.6
28887.6
28954
29029.1
29118
29227
29363.5
29537.5
29762.1
30054.9
30439.5
30948.6
31627.2
32538.1
33769.8
35448.4
37755.2
40955.5
45444.7
51827
61052.7
74632.6
95259.2
127940
182952
284177
497104
1.04961e+06
3.09626e+06
1.79872e+07
2078.76
6025.02
9622.24
12764.6
15420.3
17585.1
19307.1
20652.8
21690.9
22484.9
23089.2
23548.2
23897.2
24163.7
24368.9
24528.8
24655.8
24759.4
24847.2
24925.4
24999.3
25073.8
25153.7
25244.2
25351.1
25481.5
25644
25849.9
26113.8
26455
26899.3
27481.8
28250.1
29269.7
30631.6
32463.2
34945.4
38339.3
43030.3
49608.5
59044.1
72674.3
93152.3
125279
178910
276996
482938
1.0205e+06
3.04088e+06
1.79872e+07
1718.81
4968.58
7957.35
10606.6
12888
14793.5
16345.9
17588.4
18570
19338.4
19936.3
20400.2
20760.1
21040.3
21259.9
21433.9
21574.4
21690.8
21790.8
21881
21966.9
22054.2
22148
22254.2
22379.4
22531.5
22720.1
22957.6
23260
23648
24149.1
24800.1
25650.4
26766.9
28241.5
30201
32823.2
36360.4
41176.7
47801.9
54459.1
67527.7
85764.3
113795
159316
239317
397212
770859
2.00888e+06
1.20425e+07
1450.41
4174.5
6695.82
8956.72
10930.3
12616.5
14018.9
15164.8
16089.1
16827.7
17414
17877.8
18244.3
18534.6
18765.9
18952.2
19104.8
19233
19344.7
19446.4
19544.3
19644.1
19751.8
19873.6
20017
20190.4
20404.5
20672.5
21011.6
21443.6
21997.3
22710.6
23634
24834.9
26404.9
28469.2
31201.5
34847.2
39759.8
46466
53164.3
66021
83949.4
111257
155233
231986
383214
747007
2.01429e+06
1.24056e+07
1248.31
3571.99
5731.96
7686.59
9413.1
10911.4
12182.7
13240.7
14110.1
14817.4
15389.1
15849.1
16218.7
16516.1
16756.7
16953.4
17116.7
17255.7
17378.1
17490.8
17600.1
17712.1
17833.1
17970.1
18130.9
18324.8
18563
18859.7
19232.9
19705.3
20306.5
21075.2
22062.2
23334.9
24984
27132.2
29949.2
33673.4
38647.9
45383
52097.9
64732.1
82357.9
109035
151803
226414
373590
730632
1.98884e+06
1.23852e+07
1095.3
3112.43
4992.31
6705.58
8233.79
9573.95
10732.5
11713
12531.5
13208.3
13763.9
14217.9
14588.1
14890.3
15138.1
15343.3
15515.8
15664.3
15796.6
15919.4
16039.3
16162.7
16296.4
16447.6
16624.7
16837.6
17098.1
17421.1
17825.1
18333.6
18976.8
19793.5
20834.7
22167.3
23880.3
26094.3
28974.3
32752.2
37761.3
44496.1
51203.7
63627
80968.1
107079
148652
233629
388260
766377
2.12093e+06
1.69429e+07
979.366
2761.76
4424.95
5948.91
7319.12
8531.08
9591.95
10505.1
11278.4
11926.7
12466.3
12913.1
13282.3
13587.4
13840.6
14052.6
14232.9
14389.7
14530.6
14662.5
14792
14925.9
15071.1
15235.2
15427.2
15657.2
15937.8
16284.2
16715.4
17255.4
17934.6
18792
19878.3
21259.5
23023.1
25287
28212.2
32024.1
37046.9
43761.7
50444
62669.7
79749.3
105384
146099
229164
379521
745809
2.07416e+06
1.69162e+07
892.004
2495.77
3992.64
5369.67
6615.61
7726.1
8704.57
9559.75
10294.2
10917.3
11442
11881.5
12248.7
12555.4
12812.5
13030
13216.7
13380.5
13528.8
13668.5
13806.5
13949.5
14104.8
14280.4
14485.4
14730.5
15028.5
15395
15849.4
16416
17125.3
18016.3
19139.1
20558.8
22361.4
24661.9
27617.6
31448.1
36469
43149.1
49791.7
61826.1
78654.6
103866
143885
225603
373946
737742
2.06687e+06
1.69155e+07
827.154
2297.14
3668.58
4933.8
6084.15
7115.78
8030.21
8835.45
9536.95
10138.7
10650.4
11083.2
11448
11755.4
12015.4
12237.1
12428.8
12598.3
12752.7
12899.1
13044.1
13194.9
13358.7
13544
13760
14017.6
14330.1
14713.3
15186.9
15775.2
16508.8
17426.4
18577.8
20027
21858.5
24184.9
27159.7
30997.1
36004.8
42639.4
49231.9
61068.2
77628.5
102387
141649
221731
367234
723785
2.02445e+06
1.67945e+07
780.507
2153.52
3433.53
4616.68
5696.27
6669.02
7535.8
8301.62
8975.37
9560.19
10061.5
10488.6
10851.2
11158.9
11420.9
11645.6
11841.2
12015.1
12174.3
12325.8
12476.5
12633.4
12804.1
12997.1
13221.8
13489.4
13813.3
14209.7
14698.1
15303.2
16055.4
16993.3
18166
19636.9
21488.8
23832.4
26817.8
30654.5
35642.5
42226
48766.2
60387.6
76644.2
100851
139089
216574
356854
696638
2.07534e+06
1.19259e+07
749.068
2056.29
3274
4400.93
5431.77
6363.66
7197.21
7936.31
8587.99
9159.56
9653.57
10076.6
10437.5
10745.3
11008.5
11235.3
11433.6
11610.6
11773.3
11928.6
12083.3
12244.7
12420.4
12618.9
12850
13124.9
13457.1
13862.8
14362
14979
15744.4
16696.5
17883.9
19369.4
21234.9
23589
26579.5
30411.6
35378.8
41914.1
48412.9
59808
75741.6
99305.7
136195
209808
341330
658676
1.98786e+06
1.1822e+07
730.672
1999.16
3180.07
4273.67
5275.47
6182.93
6996.52
7719.64
8358.23
8920.13
9409.53
9830.23
10190.1
10497.8
10761.8
10989.9
11189.8
11368.7
11533.5
11691.1
11848.4
12012.5
12191.3
12393.3
12628.2
12907.6
13244.8
13656.4
14162.1
14786.4
15559.7
16520.3
17716.5
19210.7
21083.8
23443.6
26436.1
30263.5
35214.7
41714.3
48197.9
59382.3
75034.7
97991.8
133461
202536
320444
584045
1.29146e+06
5.51154e+06
724.703
1980.44
3149.19
4231.73
5223.88
6123.18
6930.1
7647.88
8282.16
8840.37
9328.13
9748.19
10107.8
10415.5
10679.6
10908.2
11108.6
11288.1
11453.7
11612
11770.2
11935.2
12115.1
12318.2
12554.5
12835.3
13174.3
13587.8
14095.7
14722.4
15498.4
16461.8
17661
19158
21033.6
23395.2
26388.1
30213.6
35158.7
41645.1
48153.7
59179.5
74683.8
97304
131923
198539
307038
524242
966499
1.97554e+06
730.976
1999.61
3180.56
4274.15
5275.91
6183.31
6996.84
7719.9
8358.42
8920.24
9409.64
9830.34
10190.2
10497.9
10761.9
10990
11189.9
11368.7
11533.5
11691.1
11848.4
12012.5
12191.3
12393.3
12628.2
12907.5
13244.8
13656.3
14162
14786.3
15559.7
16520.2
17716.5
19210.6
21083.8
23443.6
26436
30263.5
35214.7
41714.3
48287.6
59248.3
74804
97542.3
132465
201040
315563
563085
1.2296e+06
4.58241e+06
749.668
2057.18
3274.96
4401.85
5432.6
6364.39
7197.81
7936.78
8588.31
9159.8
9653.8
10076.8
10437.7
10745.4
11008.6
11235.5
11433.7
11610.7
11773.4
11928.6
12083.4
12244.7
12420.4
12618.9
12849.9
13124.8
13457
13862.7
14361.9
14978.9
15744.3
16696.3
17883.8
19369.3
21234.7
23588.9
26579.4
30411.6
35378.8
41914.1
48576.4
59572.3
75355.2
98599.2
134757
207947
336417
643682
1.63929e+06
1.17235e+07
781.384
2154.79
3434.89
4617.97
5697.43
6670.02
7536.62
8302.23
8975.78
9560.55
10061.8
10488.9
10851.5
11159.2
11421.1
11645.8
11841.4
12015.2
12174.4
12325.9
12476.6
12633.4
12804.1
12997
13221.7
13489.3
13813.2
14209.5
14698
15303.1
16055.3
16993.2
18165.8
19636.7
21488.7
23832.2
26817.7
30654.4
35642.4
42226
48989.4
60082.2
76177
100069
137667
215031
353563
689304
1.74971e+06
1.192e+07
828.269
2298.74
3670.26
4935.38
6085.55
7116.96
8031.16
8836.07
9537.45
10139.1
10650.8
11083.5
11448.3
11755.7
12015.7
12237.3
12429
12598.4
12752.8
12899.2
13044.2
13194.9
13358.7
13543.9
13759.9
14017.5
14330
14713.2
15186.7
15775
16508.6
17426.2
18577.5
20026.8
21858.3
24184.7
27159.5
30997
36004.7
42639.3
49503.4
60717.4
77130.5
101628
140419
220590
365012
717770
1.99369e+06
1.63316e+07
893.315
2497.62
3994.56
5371.45
6617.16
7727.37
8705.5
9560.44
10294.8
10917.8
11442.4
11881.9
12249
12555.7
12812.8
13030.3
13216.9
13380.6
13528.9
13668.6
13806.5
13949.5
14104.8
14280.4
14485.3
14730.4
15028.3
15394.8
15849.2
16415.8
17125.1
18016.1
19138.8
20558.5
22361.1
24661.7
27617.4
31447.9
36468.9
43149
50108.3
61437.4
78135.8
103130
142793
224713
372525
735387
2.06317e+06
1.69144e+07
980.824
2763.78
4427.01
5950.78
7320.71
8532.33
9592.89
10505.9
11279
11927.2
12466.8
12913.6
13282.7
13587.7
13840.9
14052.9
14233.1
14389.9
14530.7
14662.6
14792.1
14925.9
15071
15235.2
15427.1
15657.1
15937.7
16284
16715.2
17255.1
17934.3
18791.7
19878
21259.2
23022.9
25286.8
28212
32023.9
37046.8
43761.6
50811.3
62235.6
79190.1
104611
144971
228234
377998
743472
2.07209e+06
1.69161e+07
1096.85
3114.54
4994.42
6707.44
8235.32
9575.06
10733.4
11713.8
12532.2
13208.9
13764.4
14218.4
14588.5
14890.6
15138.4
15343.5
15516
15664.5
15796.7
15919.4
16039.3
16162.7
16296.3
16447.5
16624.6
16837.4
17098
17420.9
17824.9
18333.4
18976.5
19793.3
20834.4
22167
23880.1
26094
28974.1
32752.1
37761.1
44496
51633.9
63132
80339.7
106201
147312
232382
385585
758742
2.09669e+06
1.69197e+07
1249.9
3574.1
5734.01
7688.35
9414.48
10912.4
12183.5
13241.5
14110.7
14818
15389.5
15849.5
16219
16516.4
16757
16953.6
17116.8
17255.8
17378.2
17490.8
17600.1
17712.1
17833.1
17970.1
18130.8
18324.6
18562.8
18859.5
19232.6
19705
20306.2
21074.9
22061.9
23334.7
24983.7
27132
29949
33673.2
38647.8
45382.9
52608.3
64158.8
81639.6
108026
150211
223888
368231
716070
1.93327e+06
1.21638e+07
1451.98
4176.53
6697.74
8958.3
10931.5
12617.4
14019.7
15165.4
16089.7
16828.2
17414.4
17878.1
18244.6
18534.8
18766.1
18952.3
19104.9
19233.1
19344.7
19446.4
19544.3
19644.1
19751.7
19873.6
20016.9
20190.2
20404.3
20672.3
21011.3
21443.3
21997
22710.4
23633.7
24834.6
26404.6
28468.9
31201.3
34847
39759.7
46465.9
53779.4
65351.1
83126.4
110109
153459
229082
378381
739924
2.00771e+06
1.24058e+07
1720.32
4970.46
7959.06
10607.9
12889
14794.3
16346.6
17589
18570.5
19338.8
19936.6
20400.4
20760.4
21040.5
21260
21434.1
21574.5
21690.9
21790.9
21881
21967
22054.1
22147.9
22254.1
22379.3
22531.4
22720
22957.5
23259.8
23647.8
24148.9
24799.9
25650.2
26766.7
28241.3
30200.8
32823
36360.2
41176.6
47801.8
55234.6
66745.9
84829.4
112487
157180
235341
389121
755713
2.01694e+06
1.23779e+07
2080.16
6026.7
9623.69
12765.7
15421.1
17585.7
19307.6
20653.2
21691.3
22485.2
23089.4
23548.4
23897.4
24163.9
24369
24528.9
24655.8
24759.4
24847.2
24925.4
24999.3
25073.8
25153.7
25244.1
25351
25481.4
25643.9
25849.8
26113.6
26454.8
26899.1
27481.6
28249.9
29269.5
30631.4
32463
34945.2
38339.2
43030.2
49608.4
59044.1
72674.3
93152.2
125279
178910
276996
482938
1.0205e+06
3.04088e+06
1.79872e+07
2569.41
7450.73
11847.1
15619.2
18728
21194.4
23103.2
24554.2
25643.9
26455.9
27058.8
27506.2
27839
28087.9
28275.9
28419.7
28532
28622.2
28697.5
28763.6
28825.6
28887.6
28953.9
29029
29118
29226.9
29363.4
29537.4
29762
30054.7
30439.4
30948.4
31627
32537.9
33769.7
35448.3
37755.1
40955.4
45444.6
51826.9
61052.7
74632.6
95259.2
127940
182952
284177
497104
1.04961e+06
3.09626e+06
1.79872e+07
3246.8
9404.17
14863.1
19444.8
23099.7
25910.9
28018.4
29570.7
30701.2
31519.6
32110.7
32538.2
32848.8
33076.1
33244.2
33370.4
33467.1
33543.5
33606.3
33660.8
33711.2
33761.4
33814.9
33875.4
33947.2
34035.6
34146.9
34289.7
34475.5
34719.5
35043.1
35475.7
36058.9
36851.2
37936.9
39437.6
41531.4
44482
48687.1
54758.1
63659.5
76967.4
97428.2
130146
185532
287614
501893
1.05566e+06
3.10148e+06
1.79872e+07
4206.79
12142.9
19032.8
24647.2
28963.8
32161.3
34469.8
36109.3
37262.6
38070.6
38636.9
39035.1
39317.1
39518.6
39664.5
39771.8
39852.6
39915.2
39965.9
40009.4
40049.1
40088.3
40130
40177.1
40233.2
40302.5
40390.3
40503.6
40652
40848.6
41111.8
41467.4
41952.2
42619.4
43546.5
44847.5
46692.4
49337.3
53174.3
58813.8
67229.8
80029
99998.9
132300
187402
289340
503511
1.05694e+06
3.10203e+06
1.79872e+07
5607.65
16088
24939.3
31874.3
36975.4
40587.4
43082.7
44781.6
45930.4
46706.5
47232.5
47591.4
47838.6
48010.9
48132.8
48220.6
48285.5
48335
48374.4
48407.6
48437.7
48467.2
48498.5
48533.8
48575.9
48628.1
48694.5
48780.9
48894.8
49047
49252.7
49533.4
49920.7
50460.7
51222.1
52307.8
53874.4
56163.2
59550.6
64634
72382.5
84413.9
103547
135000
189315
290593
504251
1.05728e+06
3.10211e+06
1.79872e+07
7727.98
21959.8
33558
42163.3
48165.7
52192.9
54834
56546.8
57654.2
58372.4
58841.7
59151.5
59358.7
59499.5
59596.7
59665.3
59715
59752.3
59781.5
59805.8
59827.6
59848.8
59871.1
59896.4
59926.6
59964.1
60012.1
60074.9
60158.2
60270.5
60423.5
60634.6
60929.3
61345.7
61941.6
62805.7
64076
65970.2
68836.9
73243.8
80132.9
91109.4
109007
139107
192070
292160
504947
1.05749e+06
3.10214e+06
1.79872e+07
11088.9
31043
46495.7
57227.4
64221.6
68615.2
71324.2
72984.5
74004.8
74637.2
75034.1
75287.1
75451.1
75559.5
75632.7
75683.2
75719.1
75745.6
75766
75782.8
75797.7
75812.2
75827.3
75844.4
75864.9
75890.4
75923.2
75966.2
76023.8
76101.9
76209.3
76358.9
76570.1
76872.5
77311.7
77959.7
78931
80411.6
82708.4
86336.8
92180.8
101791
117977
146058
196851
294903
506128
1.0578e+06
3.10217e+06
1.79872e+07
16750.1
45812
66733.3
80069
88050.1
92676.9
95328.5
96850.6
97733.5
98253.9
98566.7
98758.6
98879.2
98956.7
99007.7
99042.2
99066.4
99083.8
99097.2
99108
99117.6
99126.8
99136.4
99147.2
99160.2
99176.5
99197.4
99225
99262
99312.6
99382.7
99481.1
99621.6
99825.3
100126
100576
101265
102340
104052
106839
111487
119425
133349
158532
205908
300420
508651
1.05851e+06
3.10225e+06
1.79872e+07
27070.6
71363.1
99950.3
116251
125015
129621
132041
133329
134029
134419
134643
134775
134855
134906
134938
134959
134974
134985
134993
134999
135005
135010
135016
135022
135030
135039
135052
135068
135090
135120
135161
135220
135306
135430
135616
135900
136343
137051
138209
140158
143534
149561
160674
181884
224022
312387
514658
1.06034e+06
3.10247e+06
1.79872e+07
47896.3
118583
157743
176960
185967
190162
192148
193117
193606
193863
194003
194082
194129
194158
194176
194187
194195
194201
194205
194209
194212
194215
194218
194221
194225
194230
194237
194246
194257
194273
194295
194327
194372
194439
194541
194698
194948
195356
196042
197236
199392
203437
211346
227494
262028
340002
530300
1.06583e+06
3.10319e+06
1.79872e+07
96086.6
214051
266502
287522
295774
299081
300462
301071
301354
301494
301567
301606
301629
301642
301651
301656
301660
301662
301664
301666
301668
301669
301671
301672
301674
301677
301680
301684
301690
301697
301707
301721
301742
301773
301820
301893
302010
302205
302542
303148
304287
306541
311250
321676
346216
407822
574726
1.08477e+06
3.10621e+06
1.79872e+07
228571
430982
496264
516076
522230
524266
524997
525284
525407
525464
525492
525507
525515
525520
525523
525525
525526
525527
525528
525529
525530
525530
525531
525532
525533
525534
525536
525538
525540
525543
525547
525553
525560
525572
525589
525615
525658
525729
525854
526085
526537
527475
529576
534674
548187
587442
712736
1.16001e+06
3.12318e+06
1.79872e+07
679347
1.01711e+06
1.08473e+06
1.09848e+06
1.10156e+06
1.10235e+06
1.10259e+06
1.10267e+06
1.1027e+06
1.10272e+06
1.10272e+06
1.10273e+06
1.10273e+06
1.10273e+06
1.10273e+06
1.10273e+06
1.10273e+06
1.10273e+06
1.10273e+06
1.10273e+06
1.10273e+06
1.10273e+06
1.10274e+06
1.10274e+06
1.10274e+06
1.10274e+06
1.10274e+06
1.10274e+06
1.10274e+06
1.10274e+06
1.10274e+06
1.10275e+06
1.10275e+06
1.10275e+06
1.10276e+06
1.10276e+06
1.10278e+06
1.10279e+06
1.10282e+06
1.10288e+06
1.10299e+06
1.10323e+06
1.10381e+06
1.10532e+06
1.10992e+06
1.12604e+06
1.19193e+06
1.50336e+06
3.24975e+06
1.79872e+07
2.70003e+06
3.18573e+06
3.23008e+06
3.23475e+06
3.23538e+06
3.23549e+06
3.23552e+06
3.23553e+06
3.23554e+06
3.23554e+06
3.23554e+06
3.23554e+06
3.23554e+06
3.23554e+06
3.23554e+06
3.23554e+06
3.23554e+06
3.23554e+06
3.23554e+06
3.23555e+06
3.23555e+06
3.23555e+06
3.23555e+06
3.23555e+06
3.23555e+06
3.23555e+06
3.23555e+06
3.23555e+06
3.23556e+06
3.23556e+06
3.23556e+06
3.23556e+06
3.23557e+06
3.23557e+06
3.23557e+06
3.23558e+06
3.23558e+06
3.23558e+06
3.23559e+06
3.2356e+06
3.23562e+06
3.23564e+06
3.23571e+06
3.23589e+06
3.23648e+06
3.23896e+06
3.2531e+06
3.36215e+06
4.4313e+06
1.79872e+07
1.87595e+07
1.87595e+07
1.87595e+07
1.87595e+07
1.87595e+07
1.87595e+07
1.87595e+07
1.87595e+07
1.87595e+07
1.87595e+07
1.87595e+07
1.87595e+07
1.87595e+07
1.87595e+07
1.87595e+07
1.87595e+07
1.87595e+07
1.87595e+07
1.87595e+07
1.87595e+07
1.87595e+07
1.87595e+07
1.87595e+07
1.87595e+07
1.87595e+07
1.87595e+07
1.87595e+07
1.87595e+07
1.87595e+07
1.87595e+07
1.87595e+07
1.87595e+07
1.87595e+07
1.87595e+07
1.87595e+07
1.87595e+07
1.87595e+07
1.87595e+07
1.87595e+07
1.87595e+07
1.87595e+07
1.87595e+07
1.87595e+07
1.87595e+07
1.87595e+07
1.87595e+07
1.87595e+07
1.87595e+07
1.87595e+07
1.87595e+07
6.64499e+07
6.76664e+07
6.76661e+07
6.76661e+07
6.76819e+07
6.7554e+07
6.76662e+07
6.76665e+07
6.76661e+07
6.7666e+07
6.7666e+07
6.7666e+07
6.76661e+07
6.76661e+07
6.76661e+07
6.7666e+07
6.7666e+07
6.7666e+07
6.7666e+07
6.76636e+07
3.10462e+06
3.316e+06
3.32433e+06
3.32406e+06
3.31227e+06
3.30067e+06
3.30897e+06
3.31683e+06
3.32438e+06
3.32455e+06
3.32456e+06
3.32456e+06
3.32456e+06
3.32456e+06
3.32456e+06
3.32456e+06
3.32455e+06
3.32449e+06
3.3223e+06
3.25297e+06
1.15729e+07
1.19501e+07
1.19517e+07
1.19517e+07
1.19426e+07
1.19256e+07
1.19441e+07
1.19511e+07
1.19517e+07
1.19517e+07
1.19517e+07
1.19517e+07
1.19517e+07
1.19517e+07
1.19517e+07
1.19517e+07
1.19517e+07
1.19517e+07
1.19513e+07
1.19093e+07
1.87595e+07
1.87595e+07
1.87595e+07
1.87595e+07
1.87595e+07
1.87595e+07
1.87595e+07
1.87595e+07
1.87595e+07
1.87595e+07
1.87595e+07
1.87595e+07
1.87595e+07
1.87595e+07
1.87595e+07
1.87595e+07
1.87595e+07
1.87595e+07
1.87595e+07
1.87595e+07
1.87595e+07
1.87595e+07
1.87595e+07
1.87595e+07
1.87595e+07
1.87595e+07
1.87595e+07
1.87595e+07
1.87595e+07
1.87595e+07
1.87595e+07
1.87595e+07
1.87595e+07
1.87595e+07
1.87595e+07
1.87595e+07
1.87595e+07
1.87595e+07
1.87595e+07
1.87595e+07
1.87595e+07
1.87595e+07
1.87595e+07
1.87595e+07
1.87595e+07
1.87595e+07
1.87595e+07
1.87595e+07
1.87595e+07
1.87595e+07
1.87595e+07
1.87595e+07
1.87595e+07
1.87595e+07
1.87595e+07
1.87595e+07
1.87595e+07
1.87595e+07
1.87595e+07
1.87595e+07
1.87595e+07
1.87595e+07
1.87595e+07
1.87595e+07
1.87595e+07
1.87595e+07
1.87595e+07
1.87595e+07
1.87595e+07
1.87595e+07
1.87595e+07
1.87595e+07
1.87595e+07
1.87595e+07
1.87595e+07
1.87595e+07
1.87595e+07
1.87595e+07
1.87595e+07
1.87595e+07
1.87595e+07
1.87595e+07
1.87595e+07
1.87595e+07
1.87595e+07
1.87595e+07
1.87595e+07
1.87595e+07
1.87595e+07
1.87595e+07
1.87595e+07
1.87595e+07
1.87595e+07
1.87595e+07
1.87595e+07
1.87595e+07
1.87595e+07
1.87595e+07
1.87595e+07
1.87595e+07
1.79872e+07
4.43129e+06
3.36207e+06
3.25301e+06
3.23887e+06
3.23639e+06
3.23581e+06
3.23563e+06
3.23557e+06
3.23555e+06
3.23554e+06
3.23553e+06
3.23553e+06
3.23553e+06
3.23553e+06
3.23553e+06
3.23553e+06
3.23553e+06
3.23553e+06
3.23553e+06
3.23553e+06
3.23553e+06
3.23553e+06
3.23554e+06
3.23554e+06
3.23554e+06
3.23554e+06
3.23554e+06
3.23554e+06
3.23554e+06
3.23554e+06
3.23554e+06
3.23554e+06
3.23554e+06
3.23554e+06
3.23554e+06
3.23554e+06
3.23554e+06
3.23554e+06
3.23554e+06
3.23554e+06
3.23554e+06
3.23554e+06
3.23554e+06
3.23554e+06
3.23554e+06
3.23554e+06
3.23554e+06
3.23554e+06
3.23554e+06
3.23554e+06
3.23554e+06
3.23554e+06
3.23554e+06
3.23554e+06
3.23554e+06
3.23554e+06
3.23554e+06
3.23554e+06
3.23554e+06
3.23554e+06
3.23554e+06
3.23554e+06
3.23554e+06
3.23554e+06
3.23554e+06
3.23554e+06
3.23554e+06
3.23554e+06
3.23554e+06
3.23554e+06
3.23554e+06
3.23554e+06
3.23554e+06
3.23554e+06
3.23554e+06
3.23554e+06
3.23554e+06
3.23554e+06
3.23554e+06
3.23554e+06
3.23554e+06
3.23554e+06
3.23554e+06
3.23554e+06
3.23554e+06
3.23554e+06
3.23554e+06
3.23554e+06
3.23554e+06
3.23554e+06
3.23554e+06
3.23554e+06
3.23554e+06
3.23554e+06
3.23554e+06
3.23554e+06
3.23554e+06
3.23554e+06
3.23554e+06
1.79872e+07
3.24983e+06
1.50335e+06
1.19189e+06
1.126e+06
1.10987e+06
1.10527e+06
1.10376e+06
1.10319e+06
1.10295e+06
1.10284e+06
1.10279e+06
1.10276e+06
1.10274e+06
1.10273e+06
1.10273e+06
1.10273e+06
1.10273e+06
1.10273e+06
1.10273e+06
1.10273e+06
1.10273e+06
1.10273e+06
1.10273e+06
1.10273e+06
1.10273e+06
1.10273e+06
1.10273e+06
1.10273e+06
1.10273e+06
1.10273e+06
1.10273e+06
1.10273e+06
1.10273e+06
1.10273e+06
1.10273e+06
1.10273e+06
1.10273e+06
1.10273e+06
1.10273e+06
1.10273e+06
1.10273e+06
1.10273e+06
1.10273e+06
1.10273e+06
1.10273e+06
1.10273e+06
1.10273e+06
1.10273e+06
1.10273e+06
1.10273e+06
1.10273e+06
1.10273e+06
1.10273e+06
1.10273e+06
1.10273e+06
1.10273e+06
1.10273e+06
1.10273e+06
1.10273e+06
1.10273e+06
1.10273e+06
1.10273e+06
1.10273e+06
1.10273e+06
1.10273e+06
1.10273e+06
1.10273e+06
1.10273e+06
1.10273e+06
1.10273e+06
1.10273e+06
1.10273e+06
1.10273e+06
1.10273e+06
1.10273e+06
1.10273e+06
1.10273e+06
1.10273e+06
1.10273e+06
1.10273e+06
1.10273e+06
1.10273e+06
1.10273e+06
1.10273e+06
1.10273e+06
1.10273e+06
1.10273e+06
1.10273e+06
1.10273e+06
1.10273e+06
1.10273e+06
1.10273e+06
1.10273e+06
1.10273e+06
1.10273e+06
1.10273e+06
1.10273e+06
1.10273e+06
1.10273e+06
1.79872e+07
3.12328e+06
1.16005e+06
712737
587420
548153
534634
529534
527434
526497
526048
525819
525697
525628
525588
525564
525550
525541
525535
525532
525529
525528
525527
525527
525526
525526
525526
525526
525526
525526
525526
525526
525526
525527
525527
525527
525527
525527
525527
525527
525527
525527
525527
525527
525527
525527
525527
525527
525527
525527
525527
525527
525527
525527
525527
525527
525527
525527
525527
525527
525527
525527
525527
525527
525527
525527
525527
525527
525527
525527
525527
525527
525527
525527
525527
525527
525527
525527
525527
525527
525527
525527
525527
525527
525527
525527
525527
525527
525527
525527
525527
525527
525527
525527
525527
525527
525527
525527
525527
525527
1.79872e+07
3.10631e+06
1.08482e+06
574753
407825
346201
321650
311218
306507
304253
303115
302511
302177
301984
301869
301799
301755
301727
301708
301696
301687
301682
301678
301675
301673
301671
301670
301669
301668
301668
301667
301667
301667
301667
301667
301666
301666
301666
301666
301666
301666
301666
301666
301666
301666
301666
301666
301666
301666
301666
301666
301665
301665
301665
301665
301665
301665
301665
301665
301665
301665
301665
301665
301665
301665
301665
301665
301665
301665
301665
301665
301665
301665
301665
301665
301665
301665
301665
301665
301665
301665
301665
301665
301665
301665
301665
301665
301665
301665
301665
301665
301665
301665
301665
301665
301665
301665
301665
301665
301665
1.79872e+07
3.1033e+06
1.0659e+06
530344
340026
262034
227486
211328
203414
199367
197211
196018
195334
194929
194683
194528
194430
194365
194322
194292
194272
194257
194247
194240
194234
194229
194226
194223
194221
194220
194218
194217
194216
194215
194214
194214
194213
194213
194213
194212
194212
194212
194212
194212
194211
194211
194211
194211
194211
194211
194211
194210
194210
194210
194210
194210
194210
194210
194210
194210
194209
194209
194209
194209
194209
194209
194209
194209
194209
194209
194209
194209
194209
194209
194209
194209
194209
194209
194209
194209
194209
194209
194209
194209
194209
194209
194209
194209
194209
194209
194209
194209
194209
194209
194209
194209
194209
194209
194209
194209
1.79872e+07
3.10258e+06
1.06041e+06
514715
312428
224047
181894
160674
149554
143522
140146
138197
137042
136337
135898
135617
135435
135313
135230
135174
135134
135105
135084
135068
135056
135047
135040
135034
135029
135025
135022
135020
135017
135015
135014
135013
135011
135010
135010
135009
135008
135008
135007
135007
135007
135006
135006
135006
135005
135005
135005
135005
135004
135004
135004
135004
135004
135003
135003
135003
135003
135003
135003
135003
135002
135002
135002
135002
135002
135002
135002
135002
135002
135002
135002
135002
135002
135002
135002
135002
135002
135002
135002
135002
135002
135002
135002
135002
135002
135002
135002
135002
135002
135002
135002
135002
135002
135002
135002
135002
1.79872e+07
3.10237e+06
1.05858e+06
508717
300475
205949
158560
133366
119434
111493
106845
104058
102349
101279
100594
100149
99852.6
99652.7
99515.3
99419.2
99350.7
99301
99264.3
99236.5
99215.2
99198.4
99185.1
99174.3
99165.5
99158.2
99152.1
99147.1
99142.8
99139.3
99136.3
99133.7
99131.6
99129.8
99128.2
99126.9
99125.8
99124.8
99123.9
99123.2
99122.5
99121.9
99121.3
99120.8
99120.4
99120
99119.6
99119.2
99118.8
99118.4
99118.1
99117.7
99117.4
99117.1
99116.8
99116.5
99116.3
99116.1
99115.9
99115.8
99115.6
99115.5
99115.4
99115.3
99115.3
99115.2
99115.2
99115.1
99115.1
99115.1
99115
99115
99115
99115
99115
99115
99115
99115
99115
99115
99115.1
99115.1
99115.1
99115.1
99115.2
99115.2
99115.2
99115.2
99115.3
99115.3
99115.3
99115.3
99115.4
99115.4
99115.4
99115.4
1.79872e+07
3.1023e+06