/*--------------------------------*- C++ -*----------------------------------*\
| =========                 |                                                 |
| \\      /  F ield         | foam-extend: Open Source CFD                    |
|  \\    /   O peration     | Version:     4.0                                |
|   \\  /    A nd           | Web:         http://www.foam-extend.org         |
|    \\/     M anipulation  |                                                 |
\*---------------------------------------------------------------------------*/
FoamFile
{
    version     2.0;
    format      ascii;
    class       surfaceScalarField;
    location    "0.0016";
    object      phi;
}
// * * * * * * * * * * * * * * * * * * * * * * * * * * * * * * * * * * * * * //

dimensions      [0 3 -1 0 0 0 0];

internalField   nonuniform List<scalar> 
57362
(
1.01437e-10
6.00722e-15
1.01419e-10
1.81879e-14
1.01388e-10
3.05826e-14
1.01345e-10
4.34652e-14
1.01288e-10
5.70563e-14
1.01216e-10
7.14744e-14
1.01129e-10
8.69621e-14
1.01026e-10
1.03698e-13
1.00904e-10
1.22081e-13
1.00761e-10
1.42363e-13
1.00596e-10
1.64747e-13
1.00407e-10
1.89492e-13
1.0019e-10
2.17144e-13
9.99418e-11
2.4798e-13
9.96594e-11
2.82433e-13
9.93384e-11
3.20962e-13
9.89743e-11
3.64172e-13
9.85616e-11
4.12528e-13
9.8095e-11
4.66671e-13
9.75677e-11
5.27228e-13
9.69726e-11
5.95243e-13
9.63014e-11
6.70877e-13
9.55459e-11
7.558e-13
9.46956e-11
8.49875e-13
9.37407e-11
9.55293e-13
9.26688e-11
1.07129e-12
9.14681e-11
1.20134e-12
9.01241e-11
1.343e-12
8.86234e-11
1.50165e-12
8.69496e-11
1.67245e-12
8.50876e-11
1.86335e-12
8.302e-11
2.06579e-12
8.073e-11
2.29161e-12
7.8201e-11
2.52675e-12
7.54154e-11
2.7876e-12
7.2359e-11
3.05377e-12
6.90153e-11
3.34586e-12
6.53748e-11
3.63774e-12
6.1425e-11
3.95186e-12
5.71634e-11
4.25888e-12
5.25857e-11
4.57945e-12
4.76987e-11
4.8846e-12
4.25102e-11
5.18989e-12
3.70381e-11
5.47006e-12
3.13051e-11
5.73397e-12
2.53415e-11
5.96198e-12
1.91844e-11
6.15757e-12
1.28761e-11
6.30728e-12
6.46445e-12
6.41168e-12
6.46394e-12
1.01438e-10
1.19564e-14
1.01421e-10
3.60996e-14
1.0139e-10
6.06993e-14
1.01348e-10
8.62477e-14
1.01291e-10
1.13207e-13
1.01221e-10
1.41854e-13
1.01135e-10
1.72593e-13
1.01033e-10
2.05967e-13
1.00913e-10
2.4247e-13
1.00772e-10
2.82633e-13
1.0061e-10
3.27033e-13
1.00423e-10
3.76277e-13
1.00209e-10
4.31212e-13
9.99649e-11
4.92388e-13
9.96865e-11
5.60832e-13
9.937e-11
6.37468e-13
9.90109e-11
7.23303e-13
9.86039e-11
8.19375e-13
9.81436e-11
9.27125e-13
9.76231e-11
1.04754e-12
9.70358e-11
1.18275e-12
9.63732e-11
1.33322e-12
9.56271e-11
1.50219e-12
9.47872e-11
1.68941e-12
9.38436e-11
1.89943e-12
9.27839e-11
2.13044e-12
9.15964e-11
2.38964e-12
9.02665e-11
2.67204e-12
8.87808e-11
2.98864e-12
8.71227e-11
3.32929e-12
8.5277e-11
3.711e-12
8.32258e-11
4.11523e-12
8.09525e-11
4.56753e-12
7.84396e-11
5.03755e-12
7.56694e-11
5.56111e-12
7.2627e-11
6.09388e-12
6.92949e-11
6.68179e-12
6.56635e-11
7.26682e-12
6.17188e-11
7.90073e-12
5.74585e-11
8.51737e-12
5.28766e-11
9.1655e-12
4.79798e-11
9.78008e-12
4.27754e-11
1.03982e-11
3.7281e-11
1.0964e-11
3.15195e-11
1.14989e-11
2.55214e-11
1.19604e-11
1.93246e-11
1.23572e-11
1.29721e-11
1.26608e-11
6.51323e-12
1.28728e-11
1.29788e-11
1.01472e-10
1.77254e-14
1.01455e-10
5.344e-14
1.01425e-10
8.99909e-14
1.01384e-10
1.27857e-13
1.01329e-10
1.67704e-13
1.01261e-10
2.10128e-13
1.01178e-10
2.55736e-13
1.01079e-10
3.05207e-13
1.00962e-10
3.59342e-13
1.00826e-10
4.18819e-13
1.00668e-10
4.84634e-13
1.00487e-10
5.57697e-13
1.00279e-10
6.39066e-13
1.00041e-10
7.2986e-13
9.97707e-11
8.31424e-13
9.94629e-11
9.45136e-13
9.91137e-11
1.07254e-12
9.87179e-11
1.21514e-12
9.82699e-11
1.37518e-12
9.77631e-11
1.55413e-12
9.7191e-11
1.75495e-12
9.65452e-11
1.97873e-12
9.58176e-11
2.23002e-12
9.49979e-11
2.50857e-12
9.40764e-11
2.82138e-12
9.30404e-11
3.16558e-12
9.18787e-11
3.55197e-12
9.05762e-11
3.97332e-12
8.91195e-11
4.44618e-12
8.74917e-11
4.95535e-12
8.56773e-11
5.52648e-12
8.36581e-11
6.13203e-12
8.14167e-11
6.81019e-12
7.89352e-11
7.51607e-12
7.61943e-11
8.30317e-12
7.31788e-11
9.10582e-12
6.98696e-11
9.99202e-12
6.62559e-11
1.08765e-11
6.23221e-11
1.18351e-11
5.80642e-11
1.2771e-11
5.34749e-11
1.37547e-11
4.85593e-11
1.46914e-11
4.33236e-11
1.56332e-11
3.77846e-11
1.64988e-11
3.19651e-11
1.73171e-11
2.58962e-11
1.80256e-11
1.9617e-11
1.86346e-11
1.31727e-11
1.91018e-11
6.61531e-12
1.94279e-11
1.95914e-11
1.01507e-10
2.32427e-14
1.0149e-10
7.00185e-14
1.01462e-10
1.17909e-13
1.01422e-10
1.67562e-13
1.0137e-10
2.19752e-13
1.01305e-10
2.75325e-13
1.01226e-10
3.35102e-13
1.01131e-10
4.00011e-13
1.01019e-10
4.70919e-13
1.00889e-10
5.48958e-13
1.00739e-10
6.35273e-13
1.00565e-10
7.31066e-13
1.00366e-10
8.37858e-13
1.00139e-10
9.57057e-13
9.98803e-11
1.09038e-12
9.95858e-11
1.23959e-12
9.92514e-11
1.40696e-12
9.88722e-11
1.59432e-12
9.84427e-11
1.80478e-12
9.79566e-11
2.04006e-12
9.74075e-11
2.30428e-12
9.6787e-11
2.59892e-12
9.60875e-11
2.93e-12
9.52985e-11
3.2972e-12
9.44107e-11
3.70994e-12
9.3411e-11
4.16449e-12
9.22888e-11
4.67545e-12
9.10283e-11
5.23279e-12
8.96168e-11
5.85971e-12
8.80358e-11
6.53471e-12
8.62709e-11
7.29438e-12
8.43018e-11
8.09908e-12
8.21112e-11
9.00489e-12
7.96792e-11
9.94552e-12
7.69857e-11
1.10021e-11
7.40138e-11
1.20749e-11
7.0741e-11
1.32713e-11
6.71568e-11
1.44581e-11
6.32397e-11
1.57596e-11
5.89872e-11
1.70218e-11
5.43857e-11
1.83638e-11
4.94412e-11
1.96355e-11
4.41569e-11
2.09248e-11
3.85491e-11
2.21075e-11
3.26411e-11
2.32317e-11
2.64638e-11
2.42051e-11
2.00598e-11
2.50444e-11
1.34761e-11
2.56888e-11
6.76967e-12
2.61392e-11
2.63651e-11
1.01541e-10
2.84371e-14
1.01526e-10
8.55813e-14
1.015e-10
1.44022e-13
1.01463e-10
2.04742e-13
1.01414e-10
2.68577e-13
1.01353e-10
3.36506e-13
1.01278e-10
4.09574e-13
1.01189e-10
4.88909e-13
1.01084e-10
5.75599e-13
1.00962e-10
6.71124e-13
1.00821e-10
7.76697e-13
1.00658e-10
8.93922e-13
1.00471e-10
1.02463e-12
1.00258e-10
1.17058e-12
1.00014e-10
1.33391e-12
9.9737e-11
1.51669e-12
9.94221e-11
1.72181e-12
9.90647e-11
1.95164e-12
9.86597e-11
2.20986e-12
9.82009e-11
2.49864e-12
9.7682e-11
2.82336e-12
9.70949e-11
3.18555e-12
9.64322e-11
3.59294e-12
9.56835e-11
4.04522e-12
9.484e-11
4.55395e-12
9.38884e-11
5.11495e-12
9.28181e-11
5.74645e-12
9.16132e-11
6.436e-12
9.02608e-11
7.21299e-12
8.87424e-11
8.05068e-12
8.70423e-11
8.99565e-12
8.51399e-11
9.99811e-12
8.30164e-11
1.11296e-11
8.06511e-11
1.23066e-11
7.80214e-11
1.36328e-11
7.51089e-11
1.49823e-11
7.18881e-11
1.64923e-11
6.83458e-11
1.79945e-11
6.44577e-11
1.96469e-11
6.02169e-11
2.12559e-11
5.56079e-11
2.29709e-11
5.06316e-11
2.46047e-11
4.52893e-11
2.62641e-11
3.95947e-11
2.7795e-11
3.35706e-11
2.92519e-11
2.72488e-11
3.05201e-11
2.06742e-11
3.16144e-11
1.38987e-11
3.24581e-11
6.98495e-12
3.30479e-11
3.33445e-11
1.01607e-10
3.31331e-14
1.01593e-10
9.98471e-14
1.01569e-10
1.68059e-13
1.01534e-10
2.3891e-13
1.0149e-10
3.13425e-13
1.01433e-10
3.92709e-13
1.01365e-10
4.78032e-13
1.01283e-10
5.70613e-13
1.01187e-10
6.71947e-13
1.01075e-10
7.83475e-13
1.00944e-10
9.06861e-13
1.00794e-10
1.04394e-12
1.00622e-10
1.19669e-12
1.00425e-10
1.36738e-12
1.00201e-10
1.55849e-12
9.99451e-11
1.7725e-12
9.96543e-11
2.01272e-12
9.93237e-11
2.28207e-12
9.8949e-11
2.58477e-12
9.85238e-11
2.92368e-12
9.80424e-11
3.30508e-12
9.74969e-11
3.73075e-12
9.68803e-11
4.21009e-12
9.61823e-11
4.74272e-12
9.53946e-11
5.34278e-12
9.45035e-11
6.00511e-12
9.34996e-11
6.75218e-12
9.23654e-11
7.56873e-12
9.10899e-11
8.49149e-12
8.96516e-11
9.48676e-12
8.8037e-11
1.06148e-11
8.62216e-11
1.18104e-11
8.41882e-11
1.31695e-11
8.19115e-11
1.45793e-11
7.93681e-11
1.61849e-11
7.65367e-11
1.78093e-11
7.33859e-11
1.9654e-11
6.99036e-11
2.14727e-11
6.60522e-11
2.35105e-11
6.18309e-11
2.54747e-11
5.72084e-11
2.76061e-11
5.21894e-11
2.96237e-11
4.67685e-11
3.16971e-11
4.09578e-11
3.36084e-11
3.47813e-11
3.54395e-11
2.8269e-11
3.70371e-11
2.14727e-11
3.84205e-11
1.44469e-11
3.94902e-11
7.26438e-12
4.02389e-11
4.06163e-11
1.01671e-10
3.73463e-14
1.01659e-10
1.1264e-13
1.01637e-10
1.89639e-13
1.01606e-10
2.69553e-13
1.01566e-10
3.53629e-13
1.01516e-10
4.43107e-13
1.01455e-10
5.3937e-13
1.01381e-10
6.43985e-13
1.01295e-10
7.58428e-13
1.01194e-10
8.84355e-13
1.01077e-10
1.02381e-12
1.00942e-10
1.17878e-12
1.00787e-10
1.35151e-12
1.0061e-10
1.54454e-12
1.00408e-10
1.76081e-12
1.00177e-10
2.00315e-12
9.99143e-11
2.27538e-12
9.96155e-11
2.58069e-12
9.92763e-11
2.92413e-12
9.88907e-11
3.30898e-12
9.84536e-11
3.74238e-12
9.79571e-11
4.22673e-12
9.73949e-11
4.77266e-12
9.67566e-11
5.38006e-12
9.60346e-11
6.06535e-12
9.52153e-11
6.82291e-12
9.42895e-11
7.67893e-12
9.32397e-11
8.61622e-12
9.20544e-11
9.67799e-12
9.07122e-11
1.08256e-11
8.91983e-11
1.21302e-11
8.74882e-11
1.35159e-11
8.55613e-11
1.50977e-11
8.33927e-11
1.6742e-11
8.09541e-11
1.86244e-11
7.82232e-11
2.05329e-11
7.51633e-11
2.27137e-11
7.17578e-11
2.48696e-11
6.79659e-11
2.73004e-11
6.37772e-11
2.96536e-11
5.91593e-11
3.22199e-11
5.41051e-11
3.4667e-11
4.86059e-11
3.71902e-11
4.26675e-11
3.95354e-11
3.63117e-11
4.17878e-11
2.95698e-11
4.3768e-11
2.2496e-11
4.54859e-11
1.51535e-11
4.68224e-11
7.62521e-12
4.77584e-11
4.8232e-11
1.01734e-10
4.10292e-14
1.01723e-10
1.2377e-13
1.01704e-10
2.08378e-13
1.01677e-10
2.96208e-13
1.01642e-10
3.88604e-13
1.01598e-10
4.86978e-13
1.01545e-10
5.92806e-13
1.01481e-10
7.07826e-13
1.01406e-10
8.33682e-13
1.01318e-10
9.72287e-13
1.01216e-10
1.12575e-12
1.01098e-10
1.29638e-12
1.00963e-10
1.48667e-12
1.00808e-10
1.69936e-12
1.00631e-10
1.93787e-12
1.00429e-10
2.2052e-12
1.00199e-10
2.50576e-12
9.99366e-11
2.84301e-12
9.96382e-11
3.22276e-12
9.92983e-11
3.64867e-12
9.89124e-11
4.12877e-12
9.84727e-11
4.66602e-12
9.7974e-11
5.27222e-12
9.74055e-11
5.94774e-12
9.67614e-11
6.71106e-12
9.60267e-11
7.55625e-12
9.51947e-11
8.51351e-12
9.42454e-11
9.56338e-12
9.31709e-11
1.07568e-11
9.1945e-11
1.20482e-11
9.05579e-11
1.35239e-11
8.89774e-11
1.50916e-11
8.71888e-11
1.68961e-11
8.51574e-11
1.87669e-11
8.28577e-11
2.09377e-11
8.02604e-11
2.31225e-11
7.73203e-11
2.56711e-11
7.40258e-11
2.81567e-11
7.03075e-11
3.10385e-11
6.61751e-11
3.37814e-11
6.1557e-11
3.68582e-11
5.64585e-11
3.97658e-11
5.08603e-11
4.28077e-11
4.47601e-11
4.56406e-11
3.81853e-11
4.83801e-11
3.11579e-11
5.08038e-11
2.37462e-11
5.29131e-11
1.60149e-11
5.45643e-11
8.06548e-12
5.57214e-11
5.63095e-11
1.01824e-10
4.40711e-14
1.01815e-10
1.33009e-13
1.01799e-10
2.23979e-13
1.01777e-10
3.18437e-13
1.01748e-10
4.17786e-13
1.01711e-10
5.23588e-13
1.01667e-10
6.37507e-13
1.01613e-10
7.61224e-13
1.0155e-10
8.96647e-13
1.01477e-10
1.04587e-12
1.01391e-10
1.21115e-12
1.01293e-10
1.39497e-12
1.01179e-10
1.6001e-12
1.01049e-10
1.82949e-12
1.009e-10
2.08687e-12
1.0073e-10
2.37555e-12
1.00535e-10
2.7003e-12
1.00313e-10
3.06502e-12
1.0006e-10
3.47607e-12
9.97705e-11
3.93755e-12
9.94413e-11
4.45825e-12
9.90648e-11
5.04175e-12
9.86366e-11
5.70098e-12
9.81462e-11
6.43689e-12
9.75884e-11
7.26976e-12
9.69487e-11
8.19393e-12
9.62208e-11
9.24273e-12
9.53851e-11
1.0396e-11
9.4433e-11
1.17105e-11
9.33398e-11
1.3137e-11
9.20927e-11
1.47731e-11
9.06615e-11
1.65166e-11
8.90261e-11
1.85336e-11
8.71541e-11
2.06308e-11
8.50116e-11
2.30815e-11
8.25702e-11
2.55537e-11
7.97766e-11
2.84643e-11
7.66125e-11
3.13087e-11
7.30071e-11
3.46406e-11
6.89499e-11
3.78244e-11
6.43766e-11
4.14245e-11
5.92635e-11
4.48626e-11
5.35848e-11
4.84758e-11
4.73268e-11
5.18812e-11
4.05076e-11
5.51864e-11
3.31521e-11
5.81421e-11
2.53276e-11
6.07237e-11
1.71141e-11
6.27618e-11
8.6287e-12
6.41926e-11
6.49234e-11
1.0191e-10
4.64984e-14
1.01903e-10
1.40298e-13
1.0189e-10
2.36254e-13
1.01873e-10
3.35924e-13
1.0185e-10
4.4074e-13
1.01821e-10
5.52362e-13
1.01786e-10
6.72644e-13
1.01744e-10
8.03293e-13
1.01694e-10
9.46314e-13
1.01636e-10
1.10396e-12
1.01569e-10
1.27864e-12
1.01491e-10
1.47295e-12
1.01401e-10
1.69e-12
1.01297e-10
1.93286e-12
1.01179e-10
2.20542e-12
1.01043e-10
2.5114e-12
1.00888e-10
2.8558e-12
1.0071e-10
3.24299e-12
1.00506e-10
3.67975e-12
1.00273e-10
4.17068e-12
1.00006e-10
4.72515e-12
9.97002e-11
5.34747e-12
9.93508e-11
6.05147e-12
9.89478e-11
6.83885e-12
9.84881e-11
7.73151e-12
9.79559e-11
8.72434e-12
9.73486e-11
9.85352e-12
9.6643e-11
1.10986e-11
9.58374e-11
1.2522e-11
9.48981e-11
1.40712e-11
9.38241e-11
1.58566e-11
9.25702e-11
1.77629e-11
9.11321e-11
1.99861e-11
8.94561e-11
2.22962e-11
8.75234e-11
2.50346e-11
8.52869e-11
2.77769e-11
8.26879e-11
3.10898e-11
7.97178e-11
3.42651e-11
7.62463e-11
3.81429e-11
7.23269e-11
4.17345e-11
6.7788e-11
4.59943e-11
6.26427e-11
5.00086e-11
5.68619e-11
5.42854e-11
5.03986e-11
5.83538e-11
4.329e-11
6.23211e-11
3.55308e-11
6.59159e-11
2.72154e-11
6.90624e-11
1.8422e-11
7.15722e-11
9.2998e-12
7.33352e-11
7.42417e-11
1.0199e-10
4.82175e-14
1.01985e-10
1.45506e-13
1.01976e-10
2.45047e-13
1.01964e-10
3.4836e-13
1.01947e-10
4.57112e-13
1.01927e-10
5.72936e-13
1.01902e-10
6.97706e-13
1.01872e-10
8.33281e-13
1.01836e-10
9.81818e-13
1.01795e-10
1.14562e-12
1.01746e-10
1.32713e-12
1.0169e-10
1.52914e-12
1.01625e-10
1.75494e-12
1.0155e-10
2.00771e-12
1.01464e-10
2.29151e-12
1.01365e-10
2.61041e-12
1.01251e-10
2.96958e-12
1.0112e-10
3.37384e-12
1.0097e-10
3.8302e-12
1.00796e-10
4.3438e-12
1.00597e-10
4.92464e-12
1.00366e-10
5.57753e-12
1.00101e-10
6.31709e-12
9.97926e-11
7.14607e-12
9.94379e-11
8.08738e-12
9.90225e-11
9.13728e-12
9.8544e-11
1.03337e-11
9.79813e-11
1.16575e-11
9.7331e-11
1.31748e-11
9.65633e-11
1.48332e-11
9.56719e-11
1.6751e-11
9.46183e-11
1.88084e-11
9.33875e-11
2.12202e-11
9.19353e-11
2.37375e-11
9.02265e-11
2.67461e-11
8.8222e-11
2.97677e-11
8.58479e-11
3.34645e-11
8.30887e-11
3.70077e-11
7.9819e-11
4.14088e-11
7.60497e-11
4.54844e-11
7.16535e-11
5.03804e-11
6.65682e-11
5.50695e-11
6.07457e-11
6.00912e-11
5.41245e-11
6.49485e-11
4.67142e-11
6.97106e-11
3.8517e-11
7.40867e-11
2.96132e-11
7.79442e-11
2.01054e-11
8.1056e-11
1.01676e-11
8.32517e-11
8.43875e-11
1.02095e-10
4.9208e-14
1.02092e-10
1.48475e-13
1.02087e-10
2.50089e-13
1.02079e-10
3.55567e-13
1.0207e-10
4.66603e-13
1.02058e-10
5.84921e-13
1.02043e-10
7.1233e-13
1.02026e-10
8.50834e-13
1.02005e-10
1.00262e-12
1.0198e-10
1.17008e-12
1.01952e-10
1.3558e-12
1.01918e-10
1.56255e-12
1.0188e-10
1.7937e-12
1.01835e-10
2.05261e-12
1.01783e-10
2.34357e-12
1.01722e-10
2.67072e-12
1.01653e-10
3.03951e-12
1.01571e-10
3.45503e-12
1.01477e-10
3.92445e-12
1.01367e-10
4.45354e-12
1.0124e-10
5.05248e-12
1.0109e-10
5.72695e-12
1.00917e-10
6.49194e-12
1.0071e-10
7.35153e-12
1.00471e-10
8.32893e-12
1.00183e-10
9.42263e-12
9.98502e-11
1.06709e-11
9.94454e-11
1.20582e-11
9.89768e-11
1.3651e-11
9.84015e-11
1.54016e-11
9.7734e-11
1.74309e-11
9.69095e-11
1.96219e-11
9.59479e-11
2.22014e-11
9.47608e-11
2.49082e-11
9.33599e-11
2.8176e-11
9.16526e-11
3.14527e-11
8.95911e-11
3.55656e-11
8.71572e-11
3.9416e-11
8.41158e-11
4.44977e-11
8.06802e-11
4.89006e-11
7.63863e-11
5.47192e-11
7.12819e-11
6.01767e-11
6.54011e-11
6.60123e-11
5.85507e-11
7.18166e-11
5.07925e-11
7.75058e-11
4.20486e-11
8.28558e-11
3.24467e-11
8.75797e-11
2.20848e-11
9.14446e-11
1.11883e-11
9.41774e-11
9.56025e-11
1.0219e-10
4.95326e-14
1.0219e-10
1.49275e-13
1.02188e-10
2.51346e-13
1.02187e-10
3.57394e-13
1.02184e-10
4.69021e-13
1.02181e-10
5.88032e-13
1.02177e-10
7.1621e-13
1.02172e-10
8.55583e-13
1.02167e-10
1.00836e-12
1.0216e-10
1.17694e-12
1.02152e-10
1.36405e-12
1.02142e-10
1.57242e-12
1.0213e-10
1.8055e-12
1.02116e-10
2.06677e-12
1.02099e-10
2.36049e-12
1.02078e-10
2.69111e-12
1.02054e-10
3.06402e-12
1.02024e-10
3.48459e-12
1.01988e-10
3.96026e-12
1.01944e-10
4.49714e-12
1.01892e-10
5.10552e-12
1.01826e-10
5.79198e-12
1.01747e-10
6.57145e-12
1.01647e-10
7.44959e-12
1.01528e-10
8.44948e-12
1.01376e-10
9.57227e-12
1.01193e-10
1.08557e-11
1.00958e-10
1.22888e-11
1.00675e-10
1.3937e-11
1.0031e-10
1.57596e-11
9.98683e-11
1.7877e-11
9.93e-11
2.01801e-11
9.86055e-11
2.29013e-11
9.772e-11
2.57797e-11
9.66226e-11
2.92792e-11
9.52487e-11
3.28083e-11
9.35121e-11
3.73061e-11
9.14023e-11
4.15036e-11
8.86873e-11
4.72104e-11
8.54964e-11
5.20669e-11
8.15634e-11
5.86403e-11
7.67186e-11
6.49849e-11
7.09082e-11
7.17972e-11
6.39629e-11
7.87218e-11
5.58725e-11
8.55632e-11
4.658e-11
9.21083e-11
3.61562e-11
9.79694e-11
2.47278e-11
1.02838e-10
1.25631e-11
1.06312e-10
1.08136e-10
1.02276e-10
4.90396e-14
1.02278e-10
1.47783e-13
1.0228e-10
2.48841e-13
1.02284e-10
3.53817e-13
1.02289e-10
4.64359e-13
1.02294e-10
5.82251e-13
1.02301e-10
7.09226e-13
1.0231e-10
8.47379e-13
1.02319e-10
9.98867e-13
1.0233e-10
1.16605e-12
1.02342e-10
1.35164e-12
1.02356e-10
1.55848e-12
1.02372e-10
1.78999e-12
1.02389e-10
2.04964e-12
1.02408e-10
2.3417e-12
1.02428e-10
2.67071e-12
1.0245e-10
3.04214e-12
1.02473e-10
3.46146e-12
1.02498e-10
3.93617e-12
1.02522e-10
4.47275e-12
1.02547e-10
5.08136e-12
1.02568e-10
5.76954e-12
1.0259e-10
6.55176e-12
1.02602e-10
7.43557e-12
1.02612e-10
8.44286e-12
1.02602e-10
9.57875e-12
1.02585e-10
1.08779e-11
1.02531e-10
1.23374e-11
1.02462e-10
1.40156e-11
1.02325e-10
1.5888e-11
1.02157e-10
1.80596e-11
1.0187e-10
2.0453e-11
1.01526e-10
2.32696e-11
1.00979e-10
2.6304e-11
1.00323e-10
2.99733e-11
9.93452e-11
3.3751e-11
9.81249e-11
3.85831e-11
9.65004e-11
4.30811e-11
9.41404e-11
4.96451e-11
9.18442e-11
5.43191e-11
8.81145e-11
6.24302e-11
8.31183e-11
6.99939e-11
7.74173e-11
7.75496e-11
7.0315e-11
8.58584e-11
6.1876e-11
9.40526e-11
5.18781e-11
1.0215e-10
4.04637e-11
1.09431e-10
2.77743e-11
1.15568e-10
1.41453e-11
1.1998e-10
1.22317e-10
1.02382e-10
4.7728e-14
1.02386e-10
1.44019e-13
1.02392e-10
2.42567e-13
1.02401e-10
3.44899e-13
1.02413e-10
4.52684e-13
1.02428e-10
5.6761e-13
1.02445e-10
6.9149e-13
1.02466e-10
8.26308e-13
1.02491e-10
9.74185e-13
1.0252e-10
1.13741e-12
1.02553e-10
1.31866e-12
1.0259e-10
1.52083e-12
1.02633e-10
1.74716e-12
1.02682e-10
2.00123e-12
1.02736e-10
2.28719e-12
1.02797e-10
2.60951e-12
1.02866e-10
2.97369e-12
1.02942e-10
3.38532e-12
1.03026e-10
3.85165e-12
1.03119e-10
4.37968e-12
1.03222e-10
4.97905e-12
1.03332e-10
5.65818e-12
1.03454e-10
6.43103e-12
1.03581e-10
7.30676e-12
1.03719e-10
8.30581e-12
1.03858e-10
9.43714e-12
1.04006e-10
1.0732e-11
1.04143e-10
1.21953e-11
1.04285e-10
1.38786e-11
1.04392e-10
1.57722e-11
1.0449e-10
1.79677e-11
1.04516e-10
2.04154e-11
1.04501e-10
2.32931e-11
1.04346e-10
2.64411e-11
1.04084e-10
3.02462e-11
1.03579e-10
3.42316e-11
1.02801e-10
3.93733e-11
1.01674e-10
4.41779e-11
9.97401e-11
5.15832e-11
9.76677e-11
5.63683e-11
9.48267e-11
3.52139e-11
3.00513e-11
9.06592e-11
3.4398e-11
3.97053e-11
8.52531e-11
3.87777e-11
4.41378e-11
7.82246e-11
4.37723e-11
4.90539e-11
6.95125e-11
4.88223e-11
5.38868e-11
5.89277e-11
5.39949e-11
5.86739e-11
4.64213e-11
5.89273e-11
6.29521e-11
3.21134e-11
6.33571e-11
6.64646e-11
1.64329e-11
6.68234e-11
6.8791e-11
6.90166e-11
6.9691e-11
1.02472e-10
4.57649e-14
1.02478e-10
1.38125e-13
1.02488e-10
2.32591e-13
1.02502e-10
3.30711e-13
1.02521e-10
4.34066e-13
1.02544e-10
5.44287e-13
1.02572e-10
6.6322e-13
1.02606e-10
7.92582e-13
1.02646e-10
9.34611e-13
1.02692e-10
1.09136e-12
1.02745e-10
1.26548e-12
1.02806e-10
1.45985e-12
1.02876e-10
1.67749e-12
1.02955e-10
1.922e-12
1.03045e-10
2.19733e-12
1.03146e-10
2.50801e-12
1.03261e-10
2.8592e-12
1.03389e-10
3.25659e-12
1.03534e-10
3.70714e-12
1.03696e-10
4.21807e-12
1.03877e-10
4.79861e-12
1.04076e-10
5.45777e-12
1.04301e-10
6.20846e-12
1.04544e-10
7.06185e-12
1.04817e-10
8.03581e-12
1.05107e-10
9.14409e-12
1.05432e-10
1.04122e-11
1.05766e-10
1.18558e-11
1.06141e-10
1.3513e-11
1.06504e-10
1.53993e-11
1.06915e-10
1.75739e-11
1.07267e-10
2.00461e-11
1.07675e-10
2.29124e-11
1.07927e-10
2.61601e-11
1.08263e-10
2.99557e-11
1.08222e-10
3.42244e-11
1.08394e-10
3.92763e-11
1.07617e-10
4.48724e-11
1.07699e-10
5.16336e-11
5.34424e-11
5.89268e-11
5.15388e-11
-3.07673e-11
3.16985e-11
5.28785e-11
-5.02562e-11
4.9334e-11
3.52209e-11
-4.86317e-11
4.73549e-11
3.9997e-11
-4.61424e-11
4.45377e-11
4.53512e-11
-4.28734e-11
4.07503e-11
5.09408e-11
-3.8471e-11
3.5787e-11
5.66863e-11
-3.28456e-11
2.95822e-11
6.22e-11
-2.60157e-11
2.2201e-11
6.71803e-11
-1.81024e-11
1.38016e-11
7.11342e-11
-9.29817e-12
4.68584e-12
7.36448e-11
1.0256e-10
4.31085e-14
1.02568e-10
1.30043e-13
1.02582e-10
2.19003e-13
1.02601e-10
3.11456e-13
1.02626e-10
4.08852e-13
1.02658e-10
5.12697e-13
1.02696e-10
6.24754e-13
1.02742e-10
7.46725e-13
1.02796e-10
8.80653e-13
1.02859e-10
1.02852e-12
1.02932e-10
1.19285e-12
1.03015e-10
1.37635e-12
1.03111e-10
1.58188e-12
1.0322e-10
1.81293e-12
1.03344e-10
2.0733e-12
1.03484e-10
2.36735e-12
1.03644e-10
2.6999e-12
1.03824e-10
3.07666e-12
1.04027e-10
3.50411e-12
1.04255e-10
3.98947e-12
1.04513e-10
4.54149e-12
1.048e-10
5.16964e-12
1.05124e-10
5.88551e-12
1.05482e-10
6.70183e-12
1.05885e-10
7.63403e-12
1.06327e-10
8.6994e-12
1.06824e-10
9.91865e-12
1.07358e-10
1.13157e-11
1.07958e-10
1.29179e-11
1.08588e-10
1.476e-11
1.09294e-10
1.68766e-11
1.10005e-10
1.93211e-11
1.10798e-10
2.21313e-11
1.11536e-10
2.54009e-11
1.12367e-10
2.91434e-11
1.12992e-10
3.35663e-11
1.13778e-10
3.85225e-11
1.13954e-10
4.46401e-11
1.14711e-10
5.09388e-11
5.83326e-11
5.99449e-11
5.52547e-11
-3.20113e-11
3.25993e-11
5.80248e-11
-5.46488e-11
5.39555e-11
-3.63608e-11
3.69022e-11
-5.34473e-11
5.24369e-11
-4.15273e-11
4.24341e-11
-5.14494e-11
5.00095e-11
-4.72677e-11
4.86431e-11
-4.84691e-11
4.64182e-11
-5.33709e-11
5.53888e-11
-4.41923e-11
4.13438e-11
-5.96141e-11
6.24529e-11
-3.81274e-11
3.45674e-11
-6.58139e-11
6.93681e-11
-3.05783e-11
2.62433e-11
-7.14546e-11
7.57846e-11
-2.15068e-11
1.64636e-11
-7.59481e-11
8.09912e-11
-1.11313e-11
5.61857e-12
-7.87598e-11
8.42837e-11
1.02645e-10
3.97576e-14
1.02655e-10
1.19963e-13
1.02672e-10
2.02111e-13
1.02696e-10
2.87417e-13
1.02728e-10
3.77345e-13
1.02767e-10
4.73291e-13
1.02815e-10
5.76712e-13
1.02873e-10
6.89375e-13
1.0294e-10
8.1307e-13
1.03019e-10
9.49752e-13
1.0311e-10
1.10172e-12
1.03215e-10
1.27148e-12
1.03335e-10
1.46163e-12
1.03473e-10
1.67557e-12
1.03629e-10
1.91679e-12
1.03807e-10
2.18931e-12
1.04009e-10
2.49778e-12
1.04238e-10
2.84766e-12
1.04498e-10
3.24485e-12
1.0479e-10
3.69649e-12
1.05122e-10
4.21051e-12
1.05494e-10
4.79668e-12
1.05917e-10
5.46509e-12
1.06387e-10
6.22961e-12
1.06921e-10
7.10289e-12
1.07512e-10
8.10552e-12
1.08184e-10
9.25242e-12
1.08917e-10
1.05759e-11
1.09755e-10
1.20907e-11
1.10652e-10
1.38516e-11
1.11681e-10
1.5865e-11
1.12753e-10
1.82309e-11
1.13988e-10
2.09234e-11
1.15218e-10
2.4142e-11
1.16644e-10
2.77601e-11
1.1795e-10
3.22127e-11
1.19471e-10
3.70695e-11
1.20655e-10
4.33806e-11
1.21923e-10
4.97717e-11
6.31635e-11
5.90864e-11
5.9505e-11
-3.25604e-11
3.26567e-11
6.32845e-11
-5.95738e-11
5.92403e-11
-3.76909e-11
3.79133e-11
-5.90351e-11
5.83898e-11
-4.35788e-11
4.41605e-11
-5.77072e-11
5.65989e-11
-5.02736e-11
5.13587e-11
-5.53213e-11
5.35137e-11
-5.76492e-11
5.94712e-11
-5.16487e-11
4.85346e-11
-6.51401e-11
6.83078e-11
-4.48239e-11
4.10251e-11
-7.31188e-11
7.69537e-11
-3.6582e-11
3.16665e-11
-8.05621e-11
8.54986e-11
-2.61446e-11
2.01362e-11
-8.6627e-11
9.26486e-11
-1.36798e-11
6.9234e-12
-9.04534e-11
9.72242e-11
1.02723e-10
3.58464e-14
1.02735e-10
1.08136e-13
1.02755e-10
1.82129e-13
1.02783e-10
2.58992e-13
1.0282e-10
3.39997e-13
1.02867e-10
4.26522e-13
1.02924e-10
5.19788e-13
1.02992e-10
6.21358e-13
1.03072e-10
7.32932e-13
1.03166e-10
8.5626e-13
1.03274e-10
9.93427e-13
1.03399e-10
1.14668e-12
1.03542e-10
1.31847e-12
1.03706e-10
1.51186e-12
1.03893e-10
1.72991e-12
1.04105e-10
1.97646e-12
1.04348e-10
2.25577e-12
1.04622e-10
2.57281e-12
1.04934e-10
2.93297e-12
1.05287e-10
3.343e-12
1.05688e-10
3.80996e-12
1.0614e-10
4.34358e-12
1.06654e-10
4.95238e-12
1.07231e-10
5.65059e-12
1.07888e-10
6.44843e-12
1.08622e-10
7.36834e-12
1.09457e-10
8.42027e-12
1.10386e-10
9.64178e-12
1.11444e-10
1.10381e-11
1.1261e-10
1.26767e-11
1.1394e-10
1.45437e-11
1.15387e-10
1.67699e-11
1.17039e-10
1.92855e-11
1.18798e-10
2.23604e-11
1.20808e-10
2.57725e-11
1.22874e-10
3.01127e-11
1.25224e-10
3.47561e-11
1.27495e-10
4.10558e-11
1.29975e-10
4.73538e-11
6.80502e-11
5.67931e-11
6.41328e-11
-3.22636e-11
3.18556e-11
6.86237e-11
-6.50226e-11
6.51432e-11
-3.82246e-11
3.80226e-11
-6.53776e-11
6.52355e-11
-4.48196e-11
4.49255e-11
-6.49805e-11
6.44277e-11
-5.25908e-11
5.3147e-11
-6.34213e-11
6.23648e-11
-6.1782e-11
6.28841e-11
-3.06662e-11
-3.68834e-11
2.96061e-11
3.75755e-11
-2.71445e-11
-4.2917e-11
2.59074e-11
4.38698e-11
-2.21537e-11
-4.82193e-11
2.05251e-11
4.96434e-11
-1.535e-11
-5.24971e-11
1.33145e-11
5.44042e-11
-6.93493e-12
5.72526e-11
-5.50015e-11
4.6302e-12
1.02792e-10
3.13882e-14
1.02805e-10
9.4603e-14
1.02828e-10
1.59329e-13
1.0286e-10
2.26617e-13
1.02903e-10
2.97487e-13
1.02956e-10
3.73116e-13
1.03021e-10
4.54752e-13
1.03099e-10
5.4372e-13
1.03191e-10
6.41414e-13
1.03297e-10
7.49435e-13
1.03421e-10
8.69581e-13
1.03564e-10
1.00388e-12
1.03728e-10
1.15454e-12
1.03916e-10
1.32416e-12
1.0413e-10
1.51546e-12
1.04375e-10
1.73201e-12
1.04653e-10
1.97734e-12
1.0497e-10
2.25609e-12
1.0533e-10
2.57286e-12
1.05739e-10
2.93402e-12
1.06204e-10
3.34558e-12
1.0673e-10
3.8166e-12
1.0733e-10
4.35426e-12
1.08006e-10
4.97254e-12
1.08778e-10
5.67923e-12
1.09646e-10
6.49706e-12
1.1064e-10
7.43215e-12
1.11752e-10
8.52415e-12
1.13028e-10
9.77113e-12
1.14448e-10
1.12465e-11
1.16083e-10
1.29242e-11
1.17889e-10
1.49477e-11
1.1997e-10
1.72278e-11
1.22248e-10
2.00565e-11
1.24867e-10
2.31904e-11
1.27701e-10
2.7239e-11
1.3091e-10
3.15994e-11
1.3435e-10
3.75581e-11
1.3806e-10
4.37149e-11
7.29891e-11
5.27397e-11
6.90468e-11
-3.0998e-11
2.99975e-11
7.41192e-11
-7.0919e-11
7.16057e-11
-3.77479e-11
3.69996e-11
-7.24329e-11
7.29305e-11
-4.49061e-11
4.43872e-11
-7.336e-11
7.34544e-11
-5.35294e-11
5.3446e-11
-7.32279e-11
7.25517e-11
-6.37076e-11
6.44211e-11
-3.70946e-11
-3.95479e-11
3.62703e-11
4.00079e-11
-3.3765e-11
-4.69095e-11
3.25882e-11
4.78551e-11
-2.83823e-11
-5.43837e-11
2.66152e-11
5.6014e-11
-2.02383e-11
-6.09469e-11
1.77448e-11
6.33684e-11
-9.32426e-12
6.81139e-11
-6.50907e-11
6.27659e-12
1.02854e-10
2.63962e-14
1.02869e-10
7.95673e-14
1.02894e-10
1.34056e-13
1.0293e-10
1.90689e-13
1.02977e-10
2.5038e-13
1.03036e-10
3.14013e-13
1.03108e-10
3.82693e-13
1.03194e-10
4.57623e-13
1.03296e-10
5.39866e-13
1.03414e-10
6.30872e-13
1.03552e-10
7.32098e-13
1.03711e-10
8.45284e-13
1.03893e-10
9.72316e-13
1.04102e-10
1.1153e-12
1.0434e-10
1.27673e-12
1.04613e-10
1.45952e-12
1.04924e-10
1.66667e-12
1.05277e-10
1.90227e-12
1.0568e-10
2.17005e-12
1.06138e-10
2.47579e-12
1.0666e-10
2.82429e-12
1.07252e-10
3.22373e-12
1.07927e-10
3.67984e-12
1.08692e-10
4.20563e-12
1.09567e-10
4.80665e-12
1.10556e-10
5.5045e-12
1.1169e-10
6.30224e-12
1.1297e-10
7.23859e-12
1.1444e-10
8.30667e-12
1.16098e-10
9.57989e-12
1.18007e-10
1.10243e-11
1.20156e-10
1.27856e-11
1.22635e-10
1.47629e-11
1.25419e-10
1.72525e-11
1.28631e-10
2e-11
1.32228e-10
2.36123e-11
1.36354e-10
2.75057e-11
1.40965e-10
3.29043e-11
1.46143e-10
3.85844e-11
7.785e-11
4.6887e-11
7.40858e-11
-2.86218e-11
2.7011e-11
7.95623e-11
-7.70885e-11
7.84565e-11
-3.60365e-11
3.46194e-11
-8.00364e-11
8.13712e-11
-4.3564e-11
4.22148e-11
-8.27389e-11
8.38271e-11
-5.29528e-11
5.18757e-11
-8.47381e-11
8.51923e-11
-6.4604e-11
6.41787e-11
-4.46371e-11
-4.11772e-11
4.41123e-11
4.1352e-11
-4.2465e-11
-5.06246e-11
4.14729e-11
5.14211e-11
-3.74836e-11
-6.12739e-11
3.55963e-11
6.30705e-11
-2.79988e-11
-7.1688e-11
2.47987e-11
7.48632e-11
-1.33721e-11
8.3246e-11
-7.89151e-11
9.04744e-12
1.02905e-10
2.10015e-14
1.02921e-10
6.3339e-14
1.02949e-10
1.06702e-13
1.02988e-10
1.51763e-13
1.03039e-10
1.99318e-13
1.03103e-10
2.50056e-13
1.03181e-10
3.04709e-13
1.03274e-10
3.64376e-13
1.03384e-10
4.29868e-13
1.03512e-10
5.02369e-13
1.03661e-10
5.83095e-13
1.03833e-10
6.73285e-13
1.04031e-10
7.74543e-13
1.04258e-10
8.88579e-13
1.04517e-10
1.01742e-12
1.04813e-10
1.1633e-12
1.05152e-10
1.32871e-12
1.05537e-10
1.51693e-12
1.05976e-10
1.73096e-12
1.06476e-10
1.97555e-12
1.07047e-10
2.25436e-12
1.07695e-10
2.57451e-12
1.08437e-10
2.9401e-12
1.09278e-10
3.36225e-12
1.10243e-10
3.84505e-12
1.11337e-10
4.40707e-12
1.12595e-10
5.04963e-12
1.14021e-10
5.80654e-12
1.15666e-10
6.67007e-12
1.17533e-10
7.70443e-12
1.19692e-10
8.87843e-12
1.22145e-10
1.03184e-11
1.2499e-10
1.19378e-11
1.28232e-10
1.39893e-11
1.31994e-10
1.62661e-11
1.36305e-10
1.92714e-11
1.41291e-10
2.25575e-11
1.47053e-10
2.71023e-11
1.53655e-10
3.20303e-11
8.23706e-11
3.91379e-11
7.89828e-11
-2.50457e-11
2.27968e-11
8.46995e-11
-8.32372e-11
8.53912e-11
-3.2879e-11
3.06852e-11
-8.78528e-11
9.02207e-11
-4.04158e-11
3.8037e-11
-9.27685e-11
9.52145e-11
-5.01829e-11
4.77458e-11
-9.76771e-11
9.99003e-11
-6.2941e-11
6.07392e-11
-5.36524e-11
-4.12044e-11
5.3703e-11
4.08246e-11
-5.39487e-11
-5.312e-11
5.35488e-11
5.33456e-11
-5.12483e-11
-6.82043e-11
4.99081e-11
6.94788e-11
-4.09594e-11
-8.54498e-11
3.69756e-11
8.94753e-11
-2.10395e-11
1.05909e-10
-9.92175e-11
1.44058e-11
1.02945e-10
1.52812e-14
1.02962e-10
4.61023e-14
1.02991e-10
7.77161e-14
1.03032e-10
1.10509e-13
1.03087e-10
1.45158e-13
1.03155e-10
1.8214e-13
1.03237e-10
2.21976e-13
1.03336e-10
2.6547e-13
1.03453e-10
3.13127e-13
1.03589e-10
3.65974e-13
1.03748e-10
4.2487e-13
1.0393e-10
4.90608e-13
1.0414e-10
5.6443e-13
1.04381e-10
6.47611e-13
1.04657e-10
7.41579e-13
1.04972e-10
8.48096e-13
1.05332e-10
9.68829e-13
1.05743e-10
1.10626e-12
1.06212e-10
1.26264e-12
1.06745e-10
1.44144e-12
1.07355e-10
1.64535e-12
1.08049e-10
1.87968e-12
1.08843e-10
2.14735e-12
1.09746e-10
2.45691e-12
1.10782e-10
2.81089e-12
1.11962e-10
3.22398e-12
1.13319e-10
3.69606e-12
1.14867e-10
4.25413e-12
1.16652e-10
4.89006e-12
1.18693e-10
5.6559e-12
1.21056e-10
6.52361e-12
1.23767e-10
7.5957e-12
1.26919e-10
8.7987e-12
1.30554e-10
1.0337e-11
1.34797e-10
1.20423e-11
1.39729e-10
1.43155e-11
1.45503e-10
1.68098e-11
1.52291e-10
2.02839e-11
1.60251e-10
2.41041e-11
8.62666e-11
2.96145e-11
8.34678e-11
-2.02446e-11
1.74105e-11
8.91615e-11
-8.89774e-11
9.19592e-11
-2.81057e-11
2.5093e-11
-9.53649e-11
9.88872e-11
-3.51111e-11
3.15807e-11
-1.02787e-10
1.06873e-10
-4.45246e-11
4.04462e-11
-1.11277e-10
1.15857e-10
-5.74206e-11
5.28558e-11
-6.38114e-11
-3.84445e-11
6.47963e-11
3.71684e-11
-6.8331e-11
-5.24445e-11
6.91782e-11
5.14441e-11
-7.09412e-11
-7.31228e-11
7.32581e-11
3.73132e-11
3.34185e-11
-3.0564e-11