/*--------------------------------*- C++ -*----------------------------------*\
| =========                 |                                                 |
| \\      /  F ield         | foam-extend: Open Source CFD                    |
|  \\    /   O peration     | Version:     4.0                                |
|   \\  /    A nd           | Web:         http://www.foam-extend.org         |
|    \\/     M anipulation  |                                                 |
\*---------------------------------------------------------------------------*/
FoamFile
{
    version     2.0;
    format      ascii;
    class       volVectorField;
    location    "0.0016";
    object      U;
}
// * * * * * * * * * * * * * * * * * * * * * * * * * * * * * * * * * * * * * //

dimensions      [0 1 -1 0 0 0 0];

internalField   nonuniform List<vector> 
28770
(
(0.00345327 1.00457e-07 0)
(0.00345286 3.03798e-07 0)
(0.00345203 5.12562e-07 0)
(0.00345077 7.28168e-07 0)
(0.00344907 9.55594e-07 0)
(0.00344689 1.19609e-06 0)
(0.0034442 1.45591e-06 0)
(0.00344097 1.73289e-06 0)
(0.00343714 2.04079e-06 0)
(0.00343266 2.38146e-06 0)
(0.00342745 2.75638e-06 0)
(0.00342144 3.16989e-06 0)
(0.00341455 3.63001e-06 0)
(0.00340666 4.14798e-06 0)
(0.00339766 4.72429e-06 0)
(0.00338743 5.36801e-06 0)
(0.00337581 6.09124e-06 0)
(0.00336264 6.90082e-06 0)
(0.00334771 7.80399e-06 0)
(0.00333087 8.81799e-06 0)
(0.00331181 9.95598e-06 0)
(0.00329035 1.12214e-05 0)
(0.00326611 1.26434e-05 0)
(0.00323892 1.42169e-05 0)
(0.00320822 1.59819e-05 0)
(0.00317391 1.79216e-05 0)
(0.00313524 2.01012e-05 0)
(0.00309216 2.24671e-05 0)
(0.00304374 2.51331e-05 0)
(0.00298999 2.79845e-05 0)
(0.00292978 3.11998e-05 0)
(0.00286322 3.45697e-05 0)
(0.00278901 3.83885e-05 0)
(0.00270732 4.22871e-05 0)
(0.00261683 4.67194e-05 0)
(0.00251766 5.11135e-05 0)
(0.00240874 5.60899e-05 0)
(0.00229001 6.08886e-05 0)
(0.00216088 6.62456e-05 0)
(0.0020211 7.1276e-05 0)
(0.00187074 7.67297e-05 0)
(0.00170944 8.17206e-05 0)
(0.00153802 8.68791e-05 0)
(0.0013562 9.1459e-05 0)
(0.00116546 9.58853e-05 0)
(0.000965877 9.96104e-05 0)
(0.000759445 0.00010287 0)
(0.000546685 0.000105314 0)
(0.000329958 0.000107047 0)
(0.000110159 0.0001079 0)
(0.00345366 3.00014e-07 0)
(0.00345326 9.08695e-07 0)
(0.00345244 1.52623e-06 0)
(0.0034512 2.16944e-06 0)
(0.00344953 2.84806e-06 0)
(0.00344738 3.56875e-06 0)
(0.00344473 4.34142e-06 0)
(0.00344155 5.18016e-06 0)
(0.00343777 6.09776e-06 0)
(0.00343335 7.10914e-06 0)
(0.00342822 8.22645e-06 0)
(0.0034223 9.46259e-06 0)
(0.0034155 1.08459e-05 0)
(0.00340773 1.23836e-05 0)
(0.00339886 1.41041e-05 0)
(0.00338877 1.60289e-05 0)
(0.0033773 1.81862e-05 0)
(0.00336432 2.06003e-05 0)
(0.0033496 2.33066e-05 0)
(0.00333298 2.63297e-05 0)
(0.00331416 2.97259e-05 0)
(0.00329299 3.35026e-05 0)
(0.00326904 3.7742e-05 0)
(0.00324219 4.244e-05 0)
(0.00321185 4.77027e-05 0)
(0.00317794 5.34961e-05 0)
(0.00313969 5.99859e-05 0)
(0.00309709 6.70642e-05 0)
(0.00304914 7.49741e-05 0)
(0.00299593 8.35094e-05 0)
(0.00293623 9.30204e-05 0)
(0.00287025 0.000103146 0)
(0.00279657 0.000114382 0)
(0.00271546 0.000126159 0)
(0.00262547 0.000139116 0)
(0.00252684 0.000152466 0)
(0.00241831 0.000166962 0)
(0.00229996 0.000181621 0)
(0.00217106 0.000197205 0)
(0.00203136 0.000212642 0)
(0.00188097 0.000228559 0)
(0.00171938 0.000243911 0)
(0.00154755 0.000259105 0)
(0.00136501 0.000273202 0)
(0.00117344 0.00028637 0)
(0.000972715 0.000297845 0)
(0.00076503 0.000307624 0)
(0.000550776 0.00031516 0)
(0.000332489 0.000320388 0)
(0.000110995 0.000323019 0)
(0.00345445 4.97091e-07 0)
(0.00345406 1.49797e-06 0)
(0.00345327 2.52045e-06 0)
(0.00345206 3.58048e-06 0)
(0.00345044 4.69915e-06 0)
(0.00344835 5.88831e-06 0)
(0.00344579 7.16492e-06 0)
(0.00344269 8.55112e-06 0)
(0.00343903 1.00671e-05 0)
(0.00343473 1.17333e-05 0)
(0.00342976 1.3576e-05 0)
(0.003424 1.56229e-05 0)
(0.0034174 1.7902e-05 0)
(0.00340985 2.04427e-05 0)
(0.00340123 2.32852e-05 0)
(0.00339143 2.64694e-05 0)
(0.00338028 3.00345e-05 0)
(0.00336766 3.40253e-05 0)
(0.00335333 3.85025e-05 0)
(0.00333716 4.35069e-05 0)
(0.00331883 4.9125e-05 0)
(0.00329821 5.53801e-05 0)
(0.00327486 6.24054e-05 0)
(0.00324867 7.01889e-05 0)
(0.00321905 7.89274e-05 0)
(0.00318593 8.8535e-05 0)
(0.00314852 9.93256e-05 0)
(0.00310684 0.000111074 0)
(0.00305984 0.000124271 0)
(0.00300766 0.000138446 0)
(0.00294901 0.000154383 0)
(0.00288413 0.000171206 0)
(0.00281154 0.000190124 0)
(0.00273153 0.000209682 0)
(0.00264259 0.00023163 0)
(0.00254493 0.000253798 0)
(0.00243729 0.000278497 0)
(0.00231963 0.000302839 0)
(0.00219126 0.000329517 0)
(0.0020518 0.00035519 0)
(0.00190137 0.000382482 0)
(0.00173935 0.000408103 0)
(0.0015667 0.000434118 0)
(0.00138289 0.000457738 0)
(0.00118959 0.000480232 0)
(0.000986687 0.000499526 0)
(0.000776399 0.000516201 0)
(0.000559183 0.000528902 0)
(0.000337653 0.000537807 0)
(0.000112736 0.000542246 0)
(0.00345561 6.84603e-07 0)
(0.00345524 2.06469e-06 0)
(0.00345449 3.47894e-06 0)
(0.00345334 4.9433e-06 0)
(0.00345178 6.4811e-06 0)
(0.00344979 8.1202e-06 0)
(0.00344734 9.88413e-06 0)
(0.00344439 1.1796e-05 0)
(0.00344089 1.3889e-05 0)
(0.00343679 1.6188e-05 0)
(0.00343203 1.87329e-05 0)
(0.00342654 2.1557e-05 0)
(0.00342022 2.47024e-05 0)
(0.003413 2.82146e-05 0)
(0.00340475 3.21431e-05 0)
(0.00339538 3.65396e-05 0)
(0.0033847 4.14682e-05 0)
(0.00337261 4.69839e-05 0)
(0.00335888 5.31759e-05 0)
(0.00334337 6.01018e-05 0)
(0.00332579 6.78714e-05 0)
(0.00330599 7.6535e-05 0)
(0.00328354 8.62629e-05 0)
(0.00325836 9.70491e-05 0)
(0.00322982 0.000109165 0)
(0.00319792 0.000122504 0)
(0.00316176 0.000137472 0)
(0.00312152 0.000153814 0)
(0.00307594 0.000172141 0)
(0.00302542 0.00019191 0)
(0.00296831 0.000214049 0)
(0.00290525 0.000237595 0)
(0.00283425 0.000263888 0)
(0.00275611 0.000291389 0)
(0.00266867 0.000321915 0)
(0.00257273 0.000353256 0)
(0.00246633 0.000387638 0)
(0.00234992 0.000422261 0)
(0.00222231 0.000459492 0)
(0.00208323 0.000496211 0)
(0.00193279 0.000534499 0)
(0.00176994 0.000571325 0)
(0.00159615 0.000608096 0)
(0.00141017 0.000642181 0)
(0.00121436 0.000674238 0)
(0.00100793 0.000702178 0)
(0.000793794 0.000726105 0)
(0.000571931 0.000744552 0)
(0.000345556 0.000757386 0)
(0.000115342 0.000763845 0)
(0.00345714 8.64902e-07 0)
(0.00345679 2.60318e-06 0)
(0.00345608 4.38163e-06 0)
(0.00345501 6.22742e-06 0)
(0.00345355 8.16897e-06 0)
(0.00345168 1.02347e-05 0)
(0.00344938 1.24559e-05 0)
(0.00344661 1.48712e-05 0)
(0.00344333 1.75054e-05 0)
(0.00343948 2.0409e-05 0)
(0.00343501 2.36184e-05 0)
(0.00342986 2.71804e-05 0)
(0.00342392 3.11545e-05 0)
(0.00341714 3.55888e-05 0)
(0.00340938 4.05487e-05 0)
(0.00340056 4.60996e-05 0)
(0.00339051 5.23286e-05 0)
(0.00337912 5.93035e-05 0)
(0.00336617 6.71418e-05 0)
(0.00335155 7.59011e-05 0)
(0.00333493 8.57464e-05 0)
(0.00331621 9.67255e-05 0)
(0.00329495 0.000109069 0)
(0.00327109 0.000122763 0)
(0.00324397 0.000138164 0)
(0.00321366 0.000155127 0)
(0.00317918 0.000174222 0)
(0.00314078 0.000195037 0)
(0.00309714 0.000218505 0)
(0.0030487 0.000243734 0)
(0.00299375 0.00027224 0)
(0.00293294 0.00030234 0)
(0.00286422 0.000336434 0)
(0.00278834 0.000371642 0)
(0.00270317 0.000411553 0)
(0.00260928 0.000451735 0)
(0.00250486 0.00049711 0)
(0.00238998 0.000541609 0)
(0.00226366 0.00059114 0)
(0.00212524 0.000638565 0)
(0.00197491 0.000689745 0)
(0.00181141 0.000737697 0)
(0.00163608 0.000786883 0)
(0.00144766 0.000831645 0)
(0.00124834 0.00087453 0)
(0.00103747 0.000911481 0)
(0.00081789 0.00094351 0)
(0.000589813 0.000968021 0)
(0.000356544 0.000985216 0)
(0.00011906 0.000993818 0)
(0.003459 1.03092e-06 0)
(0.00345868 3.10227e-06 0)
(0.00345803 5.21988e-06 0)
(0.00345705 7.42209e-06 0)
(0.0034557 9.73625e-06 0)
(0.00345399 1.21992e-05 0)
(0.00345188 1.48492e-05 0)
(0.00344933 1.77229e-05 0)
(0.00344631 2.0868e-05 0)
(0.00344277 2.43328e-05 0)
(0.00343866 2.81617e-05 0)
(0.00343391 3.24146e-05 0)
(0.00342845 3.71546e-05 0)
(0.0034222 4.24503e-05 0)
(0.00341505 4.83792e-05 0)
(0.00340691 5.50139e-05 0)
(0.00339763 6.24595e-05 0)
(0.00338711 7.08062e-05 0)
(0.00337513 8.01826e-05 0)
(0.0033616 9.06757e-05 0)
(0.00334618 0.000102479 0)
(0.00332882 0.000115646 0)
(0.00330903 0.000130461 0)
(0.00328685 0.00014692 0)
(0.00326151 0.000165435 0)
(0.00323322 0.000185871 0)
(0.00320084 0.000208876 0)
(0.00316487 0.000234032 0)
(0.00312362 0.000262364 0)
(0.00307803 0.00029298 0)
(0.0030257 0.000327473 0)
(0.00296811 0.000364204 0)
(0.0029021 0.000405541 0)
(0.00282967 0.000448799 0)
(0.0027471 0.000497301 0)
(0.0026565 0.000547091 0)
(0.00255433 0.000602383 0)
(0.00244198 0.000658031 0)
(0.00231725 0.000718663 0)
(0.00217977 0.000778504 0)
(0.00202985 0.000841658 0)
(0.00186506 0.000902626 0)
(0.00168814 0.000964067 0)
(0.00149599 0.00102137 0)
(0.00129253 0.00107561 0)
(0.00107548 0.0011232 0)
(0.000849156 0.00116413 0)
(0.000612768 0.00119587 0)
(0.000370814 0.00121799 0)
(0.000123765 0.00122916 0)
(0.00346118 1.17796e-06 0)
(0.0034609 3.55421e-06 0)
(0.00346031 5.98405e-06 0)
(0.00345943 8.50524e-06 0)
(0.00345823 1.11587e-05 0)
(0.00345669 1.39815e-05 0)
(0.00345479 1.70197e-05 0)
(0.00345251 2.0318e-05 0)
(0.0034498 2.39284e-05 0)
(0.00344663 2.78989e-05 0)
(0.00344293 3.22958e-05 0)
(0.00343866 3.71813e-05 0)
(0.00343375 4.26247e-05 0)
(0.00342812 4.87081e-05 0)
(0.00342168 5.55201e-05 0)
(0.00341435 6.3153e-05 0)
(0.00340597 7.17221e-05 0)
(0.00339647 8.13319e-05 0)
(0.00338563 9.21352e-05 0)
(0.00337338 0.000104236 0)
(0.00335938 0.00011786 0)
(0.00334362 0.000133071 0)
(0.00332557 0.000150212 0)
(0.00330534 0.000169262 0)
(0.00328212 0.000190751 0)
(0.00325619 0.00021447 0)
(0.00322634 0.000241269 0)
(0.00319315 0.00027055 0)
(0.00315486 0.000303735 0)
(0.00311246 0.000339471 0)
(0.00306349 0.000380177 0)
(0.00300938 0.000423156 0)
(0.00294706 0.000472425 0)
(0.0028782 0.000523154 0)
(0.00279941 0.000581694 0)
(0.00271217 0.000640194 0)
(0.00261348 0.000707884 0)
(0.00250384 0.000773486 0)
(0.00238163 0.000848706 0)
(0.00224568 0.000919811 0)
(0.00209645 0.000998751 0)
(0.00193128 0.00107229 0)
(0.00175235 0.00114907 0)
(0.00155687 0.00121919 0)
(0.00134805 0.00128703 0)
(0.00112415 0.00134594 0)
(0.000889042 0.00139724 0)
(0.00064255 0.00143682 0)
(0.000389145 0.00146461 0)
(0.00013 0.00147859 0)
(0.00346364 1.31179e-06 0)
(0.00346339 3.95507e-06 0)
(0.00346288 6.65848e-06 0)
(0.00346212 9.46494e-06 0)
(0.00346107 1.24165e-05 0)
(0.00345973 1.55589e-05 0)
(0.00345808 1.89383e-05 0)
(0.0034561 2.26143e-05 0)
(0.00345373 2.66333e-05 0)
(0.00345097 3.1058e-05 0)
(0.00344775 3.5958e-05 0)
(0.00344403 4.14035e-05 0)
(0.00343974 4.74758e-05 0)
(0.00343483 5.4261e-05 0)
(0.00342919 6.18669e-05 0)
(0.00342278 7.03899e-05 0)
(0.00341543 7.99698e-05 0)
(0.0034071 9.07138e-05 0)
(0.00339756 0.000102806 0)
(0.00338678 0.000116362 0)
(0.00337442 0.000131631 0)
(0.0033605 0.00014871 0)
(0.00334447 0.000167965 0)
(0.00332655 0.000189408 0)
(0.00330577 0.000213605 0)
(0.00328269 0.000240389 0)
(0.00325575 0.000270658 0)
(0.00322604 0.000303863 0)
(0.00319111 0.000341462 0)
(0.00315288 0.000382232 0)
(0.00310763 0.000428498 0)
(0.00305843 0.000477903 0)
(0.00300001 0.000534085 0)
(0.00293665 0.000592973 0)
(0.00286169 0.000659926 0)
(0.00278007 0.00072866 0)
(0.00268485 0.000806358 0)
(0.00257987 0.000884483 0)
(0.00246053 0.000971315 0)
(0.00232669 0.00105709 0)
(0.00217915 0.00114923 0)
(0.00201225 0.00123884 0)
(0.00183199 0.00133026 0)
(0.00163107 0.00141649 0)
(0.00141663 0.00149881 0)
(0.00118339 0.00157192 0)
(0.000938142 0.00163514 0)
(0.000678733 0.00168467 0)
(0.000411719 0.00171927 0)
(0.000137457 0.00173686 0)
(0.00346634 1.4235e-06 0)
(0.00346613 4.29628e-06 0)
(0.00346571 7.2334e-06 0)
(0.00346507 1.02823e-05 0)
(0.0034642 1.34905e-05 0)
(0.00346308 1.69063e-05 0)
(0.0034617 2.05822e-05 0)
(0.00346004 2.45742e-05 0)
(0.00345807 2.89456e-05 0)
(0.00345575 3.37613e-05 0)
(0.00345306 3.90925e-05 0)
(0.00344994 4.50219e-05 0)
(0.00344634 5.16358e-05 0)
(0.00344222 5.903e-05 0)
(0.00343748 6.73245e-05 0)
(0.00343207 7.66239e-05 0)
(0.00342587 8.70816e-05 0)
(0.00341884 9.88204e-05 0)
(0.00341074 0.000112045 0)
(0.0034016 0.000126883 0)
(0.00339105 0.000143621 0)
(0.00337919 0.000162359 0)
(0.00336542 0.000183517 0)
(0.00335003 0.000207109 0)
(0.00333204 0.0002338 0)
(0.00331205 0.000263362 0)
(0.00328849 0.000296911 0)
(0.00326249 0.000333697 0)
(0.00323159 0.000375658 0)
(0.00319767 0.000420982 0)
(0.00315716 0.0004731 0)
(0.00311276 0.000528207 0)
(0.00305972 0.000592327 0)
(0.00300142 0.000658159 0)
(0.00293227 0.000735924 0)
(0.00285556 0.000812843 0)
(0.00276605 0.000905052 0)
(0.00266536 0.000992639 0)
(0.00255064 0.00109792 0)
(0.00241989 0.00119501 0)
(0.00227441 0.00130798 0)
(0.00210853 0.00141223 0)
(0.0019263 0.00152359 0)
(0.00172191 0.00162623 0)
(0.00150023 0.00172654 0)
(0.00125764 0.00181502 0)
(0.000999445 0.00189241 0)
(0.000724927 0.00195297 0)
(0.000440247 0.00199551 0)
(0.000147219 0.00201712 0)
(0.00346924 1.51457e-06 0)
(0.00346907 4.57101e-06 0)
(0.00346874 7.69856e-06 0)
(0.00346824 1.09468e-05 0)
(0.00346755 1.43619e-05 0)
(0.00346668 1.79995e-05 0)
(0.00346559 2.19182e-05 0)
(0.00346428 2.6174e-05 0)
(0.00346273 3.08309e-05 0)
(0.0034609 3.59631e-05 0)
(0.00345877 4.16506e-05 0)
(0.00345631 4.79758e-05 0)
(0.00345346 5.50376e-05 0)
(0.00345019 6.29362e-05 0)
(0.00344642 7.18003e-05 0)
(0.00344212 8.1746e-05 0)
(0.00343717 9.29383e-05 0)
(0.00343155 0.000105514 0)
(0.00342504 0.000119692 0)
(0.0034177 0.00013562 0)
(0.00340915 0.000153596 0)
(0.00339957 0.000173758 0)
(0.00338829 0.000196548 0)
(0.00337579 0.000222017 0)
(0.00336086 0.000250851 0)
(0.00334449 0.0002829 0)
(0.00332462 0.000319271 0)
(0.00330315 0.000359372 0)
(0.00327658 0.000405041 0)
(0.0032483 0.000454816 0)
(0.00321263 0.000511774 0)
(0.00317518 0.000572898 0)
(0.00312726 0.000643243 0)
(0.00307726 0.000717228 0)
(0.00301316 0.00080284 0)
(0.00294567 0.000890739 0)
(0.00286089 0.000992569 0)
(0.00276873 0.00109461 0)
(0.00265868 0.00121145 0)
(0.00253238 0.00132662 0)
(0.00239184 0.00145365 0)
(0.00222336 0.00157861 0)
(0.00204153 0.00170813 0)
(0.00182979 0.00183252 0)
(0.00160149 0.00195255 0)
(0.00134582 0.00206112 0)
(0.00107322 0.00215583 0)
(0.000779679 0.00223115 0)
(0.00047454 0.002284 0)
(0.000158617 0.00231111 0)
(0.0034723 1.58532e-06 0)
(0.00347219 4.78217e-06 0)
(0.00347195 8.05171e-06 0)
(0.00347159 1.1448e-05 0)
(0.0034711 1.50208e-05 0)
(0.00347047 1.88246e-05 0)
(0.0034697 2.29246e-05 0)
(0.00346877 2.73788e-05 0)
(0.00346766 3.22566e-05 0)
(0.00346635 3.76338e-05 0)
(0.00346482 4.3592e-05 0)
(0.00346305 5.02207e-05 0)
(0.00346099 5.76292e-05 0)
(0.00345863 6.59213e-05 0)
(0.00345589 7.52273e-05 0)
(0.00345277 8.56806e-05 0)
(0.00344914 9.74482e-05 0)
(0.00344503 0.000110685 0)
(0.00344021 0.000125624 0)
(0.0034348 0.000142425 0)
(0.0034284 0.000161414 0)
(0.00342124 0.000182739 0)
(0.00341267 0.000206883 0)
(0.0034032 0.000233906 0)
(0.00339165 0.000264582 0)
(0.00337905 0.000298722 0)
(0.00336337 0.00033763 0)
(0.00334647 0.000380535 0)
(0.00332505 0.00042976 0)
(0.00330219 0.000483265 0)
(0.00327278 0.000545329 0)
(0.00324149 0.000611296 0)
(0.00320104 0.000689159 0)
(0.00315768 0.00076918 0)
(0.00310216 0.000866129 0)
(0.00304133 0.000961054 0)
(0.00296568 0.00108008 0)
(0.00287968 0.00118973 0)
(0.00277781 0.0013314 0)
(0.00265704 0.00145568 0)
(0.00252116 0.00161263 0)
(0.00235771 0.00175528 0)
(0.00217491 0.00191089 0)
(0.00196125 0.00205772 0)
(0.00172407 0.00220217 0)
(0.00145669 0.00233326 0)
(0.00116593 0.00244831 0)
(0.000850426 0.00254031 0)
(0.000518547 0.002605 0)
(0.00017376 0.00263832 0)
(0.00347547 1.62918e-06 0)
(0.00347541 4.91823e-06 0)
(0.00347527 8.28473e-06 0)
(0.00347506 1.1776e-05 0)
(0.00347478 1.54534e-05 0)
(0.00347442 1.93712e-05 0)
(0.00347397 2.35891e-05 0)
(0.00347342 2.81733e-05 0)
(0.00347277 3.3198e-05 0)
(0.00347201 3.87412e-05 0)
(0.0034711 4.48834e-05 0)
(0.00347006 5.17221e-05 0)
(0.00346883 5.93671e-05 0)
(0.00346742 6.79258e-05 0)
(0.00346577 7.75402e-05 0)
(0.00346388 8.83469e-05 0)
(0.00346166 0.000100524 0)
(0.00345913 0.000114238 0)
(0.00345612 0.000129723 0)
(0.00345274 0.000147162 0)
(0.00344862 0.000166896 0)
(0.00344409 0.000189097 0)
(0.0034384 0.000214257 0)
(0.00343228 0.000242499 0)
(0.00342432 0.000274577 0)
(0.00341601 0.00031043 0)
(0.00340473 0.000351281 0)
(0.00339335 0.000396633 0)
(0.00337717 0.000448559 0)
(0.00336145 0.000505615 0)
(0.00333799 0.000571404 0)
(0.00331601 0.0006426 0)
(0.00328186 0.000725525 0)
(0.00325054 0.000813324 0)
(0.00320104 0.000916945 0)
(0.00315516 0.00102346 0)
(0.0030848 0.00115089 0)
(0.00301481 0.00127746 0)
(0.00291909 0.00142918 0)
(0.00280774 0.00157662 0)
(0.00268519 0.00174607 0)
(0.0025154 0.00191603 0)
(0.00233767 0.0020952 0)
(0.00211502 0.00227218 0)
(0.00187128 0.00244521 0)
(0.00158682 0.00260587 0)
(0.00127596 0.00274799 0)
(0.000933099 0.00286343 0)
(0.000570495 0.00294514 0)
(0.000191236 0.00298753 0)
(0.00347872 1.65136e-06 0)
(0.00347869 4.98008e-06 0)
(0.00347866 8.38785e-06 0)
(0.00347861 1.19285e-05 0)
(0.00347854 1.56535e-05 0)
(0.00347844 1.96236e-05 0)
(0.00347833 2.38995e-05 0)
(0.00347818 2.8549e-05 0)
(0.003478 3.36432e-05 0)
(0.00347779 3.92644e-05 0)
(0.00347753 4.55034e-05 0)
(0.00347723 5.24477e-05 0)
(0.00347686 6.02128e-05 0)
(0.00347643 6.89149e-05 0)
(0.00347589 7.86977e-05 0)
(0.00347528 8.97011e-05 0)
(0.00347449 0.00010211 0)
(0.00347362 0.000116097 0)
(0.00347246 0.000131907 0)
(0.0034712 0.00014974 0)
(0.00346946 0.000169936 0)
(0.00346762 0.0001927 0)
(0.00346496 0.000218539 0)
(0.00346226 0.000247603 0)
(0.00345817 0.000280684 0)
(0.00345415 0.000317745 0)
(0.00344778 0.000360113 0)
(0.00344172 0.000407244 0)
(0.00343176 0.000461506 0)
(0.00342247 0.000521159 0)
(0.00340691 0.000590657 0)
(0.0033924 0.000665529 0)
(0.00336821 0.000754571 0)
(0.00334513 0.000847225 0)
(0.00330793 0.000961452 0)
(0.00327041 0.00107339 0)
(0.00321439 0.00122015 0)
(0.00315218 0.00135027 0)
(0.00307075 0.00153733 0)
(0.00296733 0.00168342 0)
(0.0028535 0.00190187 0)
(0.00269956 0.00209576 0)
(0.00252366 0.00230562 0)
(0.00230397 0.00251559 0)
(0.0020508 0.00272185 0)
(0.00175316 0.00291786 0)
(0.00141814 0.00309066 0)
(0.00104348 0.00323287 0)
(0.00064006 0.00333336 0)
(0.000215271 0.00338597 0)
(0.00348197 1.65082e-06 0)
(0.003482 4.97156e-06 0)
(0.00348207 8.36853e-06 0)
(0.00348217 1.18978e-05 0)
(0.00348231 1.56146e-05 0)
(0.00348249 1.95786e-05 0)
(0.00348271 2.38478e-05 0)
(0.00348297 2.84899e-05 0)
(0.00348327 3.3581e-05 0)
(0.00348362 3.91983e-05 0)
(0.00348401 4.54334e-05 0)
(0.00348446 5.23803e-05 0)
(0.00348495 6.01535e-05 0)
(0.00348552 6.88698e-05 0)
(0.00348612 7.86685e-05 0)
(0.00348681 8.97061e-05 0)
(0.0034875 0.000102158 0)
(0.00348831 0.000116209 0)
(0.00348906 0.00013211 0)
(0.00348998 0.000150069 0)
(0.00349069 0.000170432 0)
(0.00349169 0.000193432 0)
(0.00349216 0.000219557 0)
(0.00349314 0.000249036 0)
(0.003493 0.000282614 0)
(0.00349379 0.000320406 0)
(0.00349236 0.000363603 0)
(0.00349264 0.00041201 0)
(0.0034887 0.000467628 0)
(0.00348791 0.000529478 0)
(0.00347935 0.000601141 0)
(0.00347651 0.000679812 0)
(0.00345977 0.000772185 0)
(0.00345312 0.000871418 0)
(0.00342248 0.00099049 0)
(0.00340847 0.00111383 0)
(0.00335592 0.00126692 0)
(0.00332538 0.00141663 0)
(0.0032453 0.00161003 0)
(0.0031647 0.0017877 0)
(0.00308895 0.00200748 0)
(0.00291075 0.00223656 0)
(0.00274876 0.00248085 0)
(0.00252257 0.00273252 0)
(0.00226517 0.00298235 0)
(0.00194795 0.00322268 0)
(0.00158442 0.00344061 0)
(0.00117075 0.00362299 0)
(0.000720401 0.00375407 0)
(0.000242749 0.00382307 0)
(0.00348519 1.61849e-06 0)
(0.00348528 4.88064e-06 0)
(0.00348545 8.22085e-06 0)
(0.00348571 1.169e-05 0)
(0.00348606 1.53427e-05 0)
(0.0034865 1.92381e-05 0)
(0.00348705 2.34339e-05 0)
(0.00348771 2.8002e-05 0)
(0.00348849 3.30101e-05 0)
(0.00348939 3.85385e-05 0)
(0.00349044 4.46761e-05 0)
(0.00349164 5.15186e-05 0)
(0.003493 5.91791e-05 0)
(0.00349456 6.77731e-05 0)
(0.00349629 7.7445e-05 0)
(0.00349827 8.83411e-05 0)
(0.00350045 0.000100651 0)
(0.00350294 0.000114555 0)
(0.00350561 0.000130301 0)
(0.00350872 0.000148114 0)
(0.00351191 0.000168325 0)
(0.00351572 0.000191204 0)
(0.00351941 0.000217227 0)
(0.00352401 0.000246668 0)
(0.00352805 0.000280243 0)
(0.00353346 0.000318177 0)
(0.00353747 0.000361589 0)
(0.00354358 0.000410485 0)
(0.00354678 0.000466745 0)
(0.0035532 0.000529723 0)
(0.00355411 0.000602834 0)
(0.00355988 0.000683721 0)
(0.00355583 0.000779124 0)
(0.00355888 0.000882182 0)
(0.00354528 0.00100773 0)
(0.00354107 0.00113624 0)
(0.00351088 0.00130529 0)
(0.00348813 0.00145545 0)
(0.00343409 0.00169965 0)
(0.0033565 0.00183357 0)
(0.00329299 0.00215454 0)
(0.00316307 0.0024297 0)
(0.00300926 0.00268913 0)
(0.00279501 0.00299139 0)
(0.00253074 0.00328784 0)
(0.00220187 0.00358732 0)
(0.0018101 0.00385483 0)
(0.0013504 0.00408158 0)
(0.000835971 0.00424461 0)
(0.000282827 0.00433144 0)
(0.00348834 1.56338e-06 0)
(0.00348847 4.7206e-06 0)
(0.00348874 7.95027e-06 0)
(0.00348915 1.13033e-05 0)
(0.0034897 1.48363e-05 0)
(0.00349042 1.86025e-05 0)
(0.00349129 2.26655e-05 0)
(0.00349234 2.70851e-05 0)
(0.00349359 3.19356e-05 0)
(0.00349504 3.72891e-05 0)
(0.00349672 4.32346e-05 0)
(0.00349866 4.98701e-05 0)
(0.00350087 5.72985e-05 0)
(0.00350341 6.56419e-05 0)
(0.00350626 7.50341e-05 0)
(0.00350953 8.5626e-05 0)
(0.00351316 9.75954e-05 0)
(0.00351734 0.000111133 0)
(0.00352191 0.000126476 0)
(0.00352722 0.000143864 0)
(0.00353288 0.000163611 0)
(0.00353956 0.000186008 0)
(0.00354646 0.000211509 0)
(0.00355484 0.000240449 0)
(0.00356302 0.000273478 0)
(0.00357344 0.000310966 0)
(0.00358274 0.000353881 0)
(0.0035956 0.000402536 0)
(0.00360546 0.000458493 0)
(0.00362117 0.000521754 0)
(0.00363014 0.000595012 0)
(0.00364913 0.000677306 0)
(0.0036541 0.000773748 0)
(0.00367696 0.000880556 0)
(0.00367126 0.00100868 0)
(0.00369983 0.00114587 0)
(0.00366848 0.0013196 0)
(0.00371154 0.00148975 0)
(0.00361555 0.00173923 0)
(0.00371712 0.00192431 0)
(0.00359932 0.00217444 0)
(0.0033413 0.00222495 0)
(0.00324566 0.00253321 0)
(0.00308056 0.00288154 0)
(0.00285394 0.00323831 0)
(0.00254356 0.00360583 0)
(0.00214303 0.00396531 0)
(0.00165737 0.00429492 0)
(0.00109926 0.00456003 0)
(0.000486021 0.00473593 0)
(0.00349135 1.48761e-06 0)
(0.00349153 4.48774e-06 0)
(0.0034919 7.5558e-06 0)
(0.00349245 1.07441e-05 0)
(0.00349321 1.41015e-05 0)
(0.00349417 1.76833e-05 0)
(0.00349536 2.15492e-05 0)
(0.00349679 2.57537e-05 0)
(0.00349848 3.03718e-05 0)
(0.00350046 3.54682e-05 0)
(0.00350276 4.11309e-05 0)
(0.00350541 4.74529e-05 0)
(0.00350844 5.45344e-05 0)
(0.00351192 6.24913e-05 0)
(0.00351586 7.14543e-05 0)
(0.00352037 8.15749e-05 0)
(0.00352543 9.30176e-05 0)
(0.00353123 0.000105973 0)
(0.00353766 0.000120667 0)
(0.00354508 0.000137341 0)
(0.00355318 0.000156296 0)
(0.00356263 0.000177843 0)
(0.00357272 0.000202389 0)
(0.00358469 0.000230341 0)
(0.00359709 0.000262243 0)
(0.00361218 0.00029864 0)
(0.00362713 0.000340268 0)
(0.00364601 0.000387848 0)
(0.00366352 0.000442374 0)
(0.00368688 0.000504868 0)
(0.00370643 0.000576582 0)
(0.0037349 0.000659104 0)
(0.00375484 0.000753743 0)
(0.00378892 0.000863448 0)
(0.00380507 0.000988364 0)
(0.00384552 0.00113576 0)
(0.00384759 0.00129882 0)
(0.00389903 0.00150174 0)
(0.0038596 0.00170301 0)
(0.0039506 0.00200414 0)
(0.00398211 0.00221614 0)
(0.00364891 0.00237693 0)
(0.00357971 0.00273726 0)
(0.00344524 0.00313706 0)
(0.00323548 0.00356233 0)
(0.00293239 0.00399619 0)
(0.00249441 0.00444715 0)
(0.0019512 0.00486482 0)
(0.00130622 0.00520187 0)
(0.000580118 0.00541793 0)
(0.00349418 1.38628e-06 0)
(0.00349441 4.18178e-06 0)
(0.00349487 7.0444e-06 0)
(0.00349556 1.00196e-05 0)
(0.0034965 1.31553e-05 0)
(0.00349771 1.64964e-05 0)
(0.00349919 2.01011e-05 0)
(0.00350098 2.4028e-05 0)
(0.00350309 2.83384e-05 0)
(0.00350558 3.30995e-05 0)
(0.00350845 3.83922e-05 0)
(0.00351179 4.43038e-05 0)
(0.00351559 5.0924e-05 0)
(0.00351998 5.83707e-05 0)
(0.00352494 6.67654e-05 0)
(0.00353064 7.62482e-05 0)
(0.00353705 8.69754e-05 0)
(0.00354442 9.91376e-05 0)
(0.00355263 0.00011294 0)
(0.0035621 0.000128624 0)
(0.00357254 0.00014647 0)
(0.0035847 0.000166799 0)
(0.00359787 0.000189978 0)
(0.00361345 0.000216448 0)
(0.00362989 0.000246692 0)
(0.00364983 0.000281319 0)
(0.00367009 0.000320975 0)
(0.00369559 0.000366531 0)
(0.00372004 0.000418819 0)
(0.00375258 0.000479131 0)
(0.00378117 0.000548522 0)
(0.00382259 0.000628971 0)
(0.00385418 0.000721677 0)
(0.00390669 0.000829948 0)
(0.00393789 0.000954532 0)
(0.00400382 0.00110199 0)
(0.00402683 0.00126935 0)
(0.00410731 0.00147426 0)
(0.00410748 0.00169291 0)
(0.00419361 0.00199219 0)
(0.00435398 0.00221097 0)
(0.00399898 0.0024821 0)
(0.00397104 0.00288988 0)
(0.00387809 0.00335446 0)
(0.00370412 0.00386372 0)
(0.00345016 0.00435449 0)
(0.00294488 0.00494725 0)
(0.00233987 0.00550182 0)
(0.00158797 0.00595331 0)
(0.00070882 0.00624056 0)
(0.0034968 1.26422e-06 0)
(0.00349707 3.81578e-06 0)
(0.00349761 6.42965e-06 0)
(0.00349843 9.14156e-06 0)
(0.00349954 1.2001e-05 0)
(0.00350097 1.50563e-05 0)
(0.00350273 1.83464e-05 0)
(0.00350485 2.19303e-05 0)
(0.00350736 2.58663e-05 0)
(0.00351031 3.02173e-05 0)
(0.00351372 3.50561e-05 0)
(0.00351768 4.04615e-05 0)
(0.00352222 4.65179e-05 0)
(0.00352743 5.3334e-05 0)
(0.00353336 6.10205e-05 0)
(0.00354016 6.9706e-05 0)
(0.00354784 7.95435e-05 0)
(0.00355665 9.07065e-05 0)
(0.00356653 0.000103383 0)
(0.00357791 0.000117808 0)
(0.00359056 0.00013423 0)
(0.00360523 0.000152979 0)
(0.00362133 0.000174361 0)
(0.00364022 0.000198859 0)
(0.00366062 0.000226834 0)
(0.00368492 0.000259049 0)
(0.00371057 0.000295853 0)
(0.00374182 0.000338527 0)
(0.00377377 0.000387229 0)
(0.00381388 0.000444311 0)
(0.00385314 0.000509143 0)
(0.00390445 0.000586421 0)
(0.00395164 0.000673219 0)
(0.00401693 0.00077952 0)
(0.00407145 0.000896144 0)
(0.00415377 0.00104552 0)
(0.00421211 0.00120195 0)
(0.00431376 0.00141778 0)
(0.00436673 0.0016252 0)
(0.00448258 0.0019469 0)
(0.00470842 0.00215855 0)
(0.00438661 0.00252361 0)
(0.00441852 0.00297776 0)
(0.00438381 0.00351875 0)
(0.00424677 0.00417182 0)
(0.00404108 0.00497784 0)
(0.00357102 0.00574035 0)
(0.00285901 0.00646886 0)
(0.00189659 0.00708191 0)
(0.000727057 0.0074589 0)
(0.00349916 1.12554e-06 0)
(0.00349947 3.39328e-06 0)
(0.00350008 5.71231e-06 0)
(0.00350102 8.12458e-06 0)
(0.00350229 1.06655e-05 0)
(0.00350391 1.33785e-05 0)
(0.00350592 1.63061e-05 0)
(0.00350834 1.94935e-05 0)
(0.00351121 2.29959e-05 0)
(0.00351457 2.68668e-05 0)
(0.00351848 3.11724e-05 0)
(0.00352301 3.59841e-05 0)
(0.0035282 4.13801e-05 0)
(0.00353417 4.74566e-05 0)
(0.00354098 5.43067e-05 0)
(0.00354878 6.20584e-05 0)
(0.00355762 7.08413e-05 0)
(0.00356776 8.08142e-05 0)
(0.00357916 9.2148e-05 0)
(0.00359231 0.000105058 0)
(0.00360698 0.000119768 0)
(0.00362399 0.000136593 0)
(0.00364279 0.000155798 0)
(0.00366483 0.000177847 0)
(0.00368883 0.000203061 0)
(0.00371741 0.000232174 0)
(0.00374792 0.000265499 0)
(0.00378506 0.000304258 0)
(0.00382362 0.000348644 0)
(0.00387195 0.000400803 0)
(0.00392031 0.000460439 0)
(0.00398325 0.000531575 0)
(0.00404326 0.000612479 0)
(0.00412498 0.000711171 0)
(0.00419836 0.000822024 0)
(0.00430325 0.000961988 0)
(0.00439133 0.00111512 0)
(0.00452174 0.00131927 0)
(0.00462558 0.00153172 0)
(0.00477429 0.00183931 0)
(0.00506711 0.0020442 0)
(0.00481008 0.00248698 0)
(0.00492273 0.00297516 0)
(0.00498122 0.00356973 0)
(0.00495038 0.00428161 0)
(0.00490003 0.00530984 0)
(0.00448276 0.00630231 0)
(0.00372741 0.00733399 0)
(0.00256949 0.0082613 0)
(0.00104159 0.00886058 0)
(0.00350122 9.67009e-07 0)
(0.00350156 2.91359e-06 0)
(0.00350225 4.90965e-06 0)
(0.00350328 6.98321e-06 0)
(0.00350469 9.16698e-06 0)
(0.00350649 1.14958e-05 0)
(0.00350872 1.40107e-05 0)
(0.0035114 1.67544e-05 0)
(0.00351458 1.9765e-05 0)
(0.00351831 2.30955e-05 0)
(0.00352265 2.67997e-05 0)
(0.00352767 3.09415e-05 0)
(0.00353345 3.55895e-05 0)
(0.00354008 4.08203e-05 0)
(0.00354766 4.67241e-05 0)
(0.00355635 5.34089e-05 0)
(0.00356621 6.09811e-05 0)
(0.00357751 6.9592e-05 0)
(0.00359028 7.93758e-05 0)
(0.00360496 9.05428e-05 0)
(0.00362144 0.000103271 0)
(0.0036405 0.000117847 0)
(0.00366173 0.000134486 0)
(0.0036865 0.000153656 0)
(0.00371381 0.000175554 0)
(0.00374606 0.000200963 0)
(0.00378116 0.000229978 0)
(0.00382323 0.000264018 0)
(0.00386831 0.000302765 0)
(0.00392334 0.000348965 0)
(0.00398119 0.000401174 0)
(0.00405332 0.00046494 0)
(0.00412749 0.000536042 0)
(0.0042221 0.00062593 0)
(0.00431704 0.000724 0)
(0.00444077 0.000853943 0)
(0.00456196 0.0009915 0)
(0.00472167 0.0011846 0)
(0.00487593 0.00138261 0)
(0.0050742 0.00167667 0)
(0.00541359 0.00186078 0)
(0.00525627 0.00235857 0)
(0.0054714 0.0028654 0)
(0.00565763 0.00350398 0)
(0.00578168 0.004306 0)
(0.00593291 0.0054984 0)
(0.00568152 0.00679704 0)
(0.00496916 0.00827165 0)
(0.00359285 0.00974017 0)
(0.00152349 0.0107835 0)
(0.00350296 7.92737e-07 0)
(0.00350333 2.3909e-06 0)
(0.00350406 4.02743e-06 0)
(0.00350519 5.72937e-06 0)
(0.00350671 7.52499e-06 0)
(0.00350866 9.43836e-06 0)
(0.00351107 1.15022e-05 0)
(0.00351397 1.37538e-05 0)
(0.00351742 1.62261e-05 0)
(0.00352146 1.89626e-05 0)
(0.00352616 2.20069e-05 0)
(0.00353161 2.54108e-05 0)
(0.00353787 2.92316e-05 0)
(0.00354508 3.35327e-05 0)
(0.00355331 3.83912e-05 0)
(0.00356274 4.38923e-05 0)
(0.00357347 5.01299e-05 0)
(0.00358577 5.72259e-05 0)
(0.00359969 6.52945e-05 0)
(0.0036157 7.45101e-05 0)
(0.00363371 8.50153e-05 0)
(0.00365456 9.70684e-05 0)
(0.00367785 0.000110837 0)
(0.00370504 0.000126719 0)
(0.00373515 0.000144889 0)
(0.0037707 0.000166004 0)
(0.00380966 0.000190172 0)
(0.00385633 0.000218555 0)
(0.00390679 0.000251013 0)
(0.00396832 0.000289695 0)
(0.00403388 0.000333777 0)
(0.00411531 0.00038743 0)
(0.00420089 0.00044815 0)
(0.00430901 0.000524235 0)
(0.00442162 0.000609332 0)
(0.00456518 0.000720212 0)
(0.0047151 0.000842212 0)
(0.00490471 0.00100902 0)
(0.0051074 0.00118969 0)
(0.00535417 0.00144913 0)
(0.00573512 0.00159873 0)
(0.00570545 0.00212652 0)
(0.00604065 0.00262553 0)
(0.00638759 0.00327827 0)