/*--------------------------------*- C++ -*----------------------------------*\
| =========                 |                                                 |
| \\      /  F ield         | foam-extend: Open Source CFD                    |
|  \\    /   O peration     | Version:     4.0                                |
|   \\  /    A nd           | Web:         http://www.foam-extend.org         |
|    \\/     M anipulation  |                                                 |
\*---------------------------------------------------------------------------*/
FoamFile
{
    version     2.0;
    format      ascii;
    class       volScalarField;
    location    "0.0006";
    object      k;
}
// * * * * * * * * * * * * * * * * * * * * * * * * * * * * * * * * * * * * * //

dimensions      [0 2 -2 0 0 0 0];

internalField   nonuniform List<scalar> 
28770
(
1.57024e-06
3.85019e-06
5.78567e-06
7.5486e-06
9.1337e-06
1.05705e-05
1.18589e-05
1.3004e-05
1.40111e-05
1.48868e-05
1.56392e-05
1.62776e-05
1.68122e-05
1.72535e-05
1.76121e-05
1.7898e-05
1.81207e-05
1.82883e-05
1.84078e-05
1.84846e-05
1.85223e-05
1.85227e-05
1.84858e-05
1.84092e-05
1.8289e-05
1.81197e-05
1.78938e-05
1.76028e-05
1.72375e-05
1.67885e-05
1.62469e-05
1.56051e-05
1.4858e-05
1.40035e-05
1.30436e-05
1.19851e-05
1.08404e-05
9.6273e-06
8.36941e-06
7.09537e-06
5.83798e-06
4.63258e-06
3.51494e-06
2.51874e-06
1.67278e-06
9.9822e-07
5.05948e-07
1.93734e-07
4.19148e-08
3.08826e-09
4.75304e-05
0.000114927
0.000172247
0.000224512
0.000271568
0.000314192
0.000352422
0.000386401
0.000416282
0.000442264
0.000464588
0.000483531
0.000499393
0.000512489
0.00052313
0.000531615
0.000538222
0.000543196
0.000546742
0.00054902
0.000550137
0.000550146
0.000549042
0.000546761
0.000543184
0.000538141
0.000531416
0.000522756
0.000511885
0.000498523
0.000482406
0.000463311
0.000441084
0.000415665
0.000387114
0.000355637
0.0003216
0.000285537
0.000248149
0.000210288
0.000172931
0.000137129
0.000103945
7.43793e-05
4.92879e-05
2.92984e-05
1.47334e-05
5.52747e-06
1.10259e-06
4.56152e-08
0.000314895
0.0007933
0.00118907
0.00154617
0.00186801
0.00215918
0.00242038
0.00265251
0.00285664
0.00303412
0.0031866
0.00331599
0.00342433
0.00351378
0.00358646
0.00364442
0.00368954
0.00372351
0.00374772
0.00376325
0.00377082
0.00377079
0.00376312
0.00374734
0.00372263
0.00368783
0.00364144
0.00358169
0.00350672
0.00341457
0.00330345
0.00317184
0.00301867
0.00284356
0.00264695
0.00243028
0.00219607
0.00194804
0.00169104
0.00143094
0.00117449
0.000928913
0.000701551
0.000499288
0.000328009
0.000192048
9.37323e-05
3.2925e-05
5.73279e-06
2.11158e-07
0.00104181
0.00275573
0.00416606
0.00541513
0.00653471
0.00754438
0.00844929
0.00925315
0.00995982
0.0105741
0.0111018
0.0115495
0.0119243
0.0122338
0.0124852
0.0126856
0.0128417
0.0129591
0.0130427
0.0130962
0.013122
0.0131214
0.0130941
0.0130385
0.0129516
0.0128293
0.0126663
0.0124564
0.0121931
0.0118695
0.0114794
0.0110174
0.01048
0.00986573
0.00917636
0.00841699
0.00759666
0.00672844
0.00582944
0.00492041
0.00402504
0.00316884
0.00237768
0.00167593
0.0010846
0.000619639
0.000290238
9.55429e-05
1.54492e-05
5.49328e-07
0.00244201
0.00670335
0.0102648
0.0133789
0.0161449
0.0186242
0.0208398
0.0228049
0.0245311
0.0260307
0.0273185
0.0284106
0.0293249
0.0300794
0.0306922
0.0311807
0.0315609
0.0318468
0.0320501
0.0321797
0.0322416
0.0322384
0.0321694
0.0320304
0.031814
0.0315098
0.0311045
0.0305829
0.0299285
0.0291244
0.028155
0.0270074
0.0256726
0.0241478
0.0224372
0.020554
0.0185209
0.0163708
0.0141464
0.0118998
0.00969025
0.00758188
0.00564
0.00392666
0.00249603
0.00138932
0.000627564
0.000197764
3.08539e-05
1.08046e-06
0.00468987
0.0131943
0.0204652
0.0268007
0.0323846
0.0373531
0.0417723
0.0456806
0.0491075
0.0520814
0.054633
0.0567959
0.0586055
0.0600983
0.0613105
0.0622763
0.0630275
0.0635919
0.0639925
0.0642468
0.0643662
0.0643559
0.0642135
0.0639305
0.0634917
0.0628756
0.0620554
0.0609999
0.0596756
0.0580487
0.0560878
0.0537667
0.051068
0.0479862
0.044531
0.0407296
0.036629
0.0322966
0.02782
0.0233057
0.0188756
0.014662
0.0108006
0.00742074
0.00463435
0.00252128
0.00110831
0.000339915
5.20326e-05
1.80696e-06
0.00790797
0.0226009
0.0354429
0.0466699
0.0565236
0.0652342
0.0729392
0.0797267
0.0856619
0.0908028
0.0952079
0.0989381
0.102057
0.104628
0.106714
0.108375
0.109667
0.110636
0.111322
0.111755
0.111955
0.111928
0.111671
0.111168
0.110392
0.109303
0.107854
0.10599
0.103651
0.100779
0.0973168
0.09322
0.0884584
0.0830236
0.0769342
0.0702404
0.0630273
0.0554164
0.0475652
0.0396648
0.0319351
0.0246158
0.0179528
0.0121788
0.00748706
0.00399947
0.00172439
0.000519842
7.86677e-05
2.71732e-06
0.0121565
0.0350875
0.0555111
0.0734879
0.0892544
0.103127
0.115336
0.126043
0.135373
0.143434
0.150328
0.156157
0.161025
0.165034
0.168285
0.170871
0.17288
0.174384
0.175447
0.176114
0.176414
0.176357
0.175937
0.175125
0.173877
0.172131
0.16981
0.166823
0.163077
0.158476
0.152932
0.146373
0.138753
0.130061
0.12033
0.109645
0.0981464
0.0860346
0.0735674
0.0610571
0.048863
0.0373777
0.0270028
0.018109
0.0109859
0.00578613
0.00246074
0.000733367
0.000110116
3.7888e-06
0.0174326
0.0506123
0.0806174
0.107238
0.130628
0.151156
0.169147
0.184858
0.198498
0.210246
0.220269
0.228727
0.23578
0.24158
0.246278
0.250012
0.252908
0.255074
0.256598
0.257548
0.257963
0.257857
0.257217
0.256
0.254138
0.251538
0.248082
0.243639
0.238066
0.231221
0.222975
0.213223
0.2019
0.188993
0.174559
0.158731
0.141728
0.123858
0.105512
0.0871633
0.0693532
0.0526731
0.0377252
0.0250487
0.0150294
0.00782971
0.0032971
0.000974924
0.00014555
4.99288e-06
0.0236757
0.0689401
0.110368
0.147402
0.180055
0.208693
0.233719
0.255493
0.274327
0.290496
0.304252
0.315833
0.325471
0.333385
0.339785
0.344865
0.348798
0.351734
0.353793
0.355065
0.355603
0.355423
0.354503
0.352783
0.350163
0.34651
0.341659
0.335424
0.327604
0.318003
0.306438
0.292766
0.276901
0.258835
0.238657
0.216567
0.192889
0.168068
0.142668
0.117356
0.092888
0.0700915
0.0498134
0.032794
0.0194979
0.0100703
0.00420953
0.00123812
0.000184091
6.30215e-06
0.0307747
0.0896628
0.144046
0.193012
0.236369
0.274414
0.307602
0.336397
0.361221
0.382463
0.400482
0.415613
0.428176
0.438472
0.446785
0.453371
0.458461
0.462252
0.4649
0.46652
0.46718
0.466898
0.46564
0.463321
0.459808
0.454918
0.448429
0.440091
0.429637
0.416801
0.401346
0.383085
0.361909
0.337822
0.310958
0.281608
0.250228
0.217437
0.184002
0.150808
0.118837
0.0891596
0.0629154
0.0411158
0.0242648
0.0124487
0.00517434
0.00151654
0.000224783
7.68347e-06
0.0385772
0.112227
0.180715
0.24278
0.297961
0.346451
0.388721
0.42532
0.456786
0.483631
0.506336
0.525352
0.541102
0.553982
0.564359
0.572565
0.578895
0.583596
0.586865
0.588847
0.589621
0.589207
0.587557
0.584558
0.580034
0.573749
0.565416
0.554712
0.541292
0.524819
0.504991
0.481575
0.454446
0.423621
0.3893
0.351886
0.312002
0.270478
0.228316
0.186629
0.146587
0.109435
0.0766664
0.0497574
0.029201
0.014924
0.00618148
0.00180879
0.000267251
9.0978e-06
0.0469029
0.136009
0.219311
0.29521
0.362924
0.422569
0.474565
0.519526
0.5581
0.590923
0.618608
0.641733
0.660839
0.676427
0.688959
0.698849
0.706461
0.712097
0.716
0.718341
0.719215
0.718641
0.716555
0.712811
0.707188
0.69939
0.689058
0.675788
0.659156
0.638745
0.614185
0.585198
0.55164
0.513558
0.471229
0.425194
0.376279
0.325572
0.274356
0.223979
0.175689
0.130632
0.0907325
0.0584185
0.0341561
0.0174809
0.0072484
0.00212701
0.000314
1.06803e-05
0.0555468
0.160342
0.258711
0.348652
0.429206
0.500365
0.562419
0.616034
0.661962
0.700961
0.733775
0.761116
0.783651
0.801994
0.816708
0.828295
0.837191
0.843761
0.848289
0.850976
0.851934
0.851177
0.848623
0.844094
0.837318
0.827934
0.815509
0.799557
0.779566
0.755039
0.725536
0.690733
0.650474
0.604839
0.554194
0.499246
0.441061
0.381047
0.320858
0.262147
0.206076
0.152741
0.104889
0.0668428
0.039032
0.0201781
0.00842572
0.00248971
0.000365536
1.22935e-05
0.0642878
0.18456
0.297763
0.40158
0.494934
0.577509
0.649622
0.711913
0.765216
0.810405
0.848349
0.879895
0.905837
0.926907
0.943771
0.957023
0.967173
0.974647
0.979776
0.98279
0.983813
0.982857
0.979821
0.974491
0.966544
0.955554
0.941012
0.922344
0.898955
0.870264
0.835763
0.795082
0.748056
0.694798
0.635774
0.571864
0.50441
0.435222
0.366501
0.30053
0.238568
0.175641
0.118518
0.0748789
0.0441387
0.0234724
0.00997495
0.00298833
0.000435778
1.37041e-05
0.0729013
0.208053
0.335489
0.4527
0.558244
0.651814
0.733735
0.804481
0.864967
0.916184
0.959122
0.994751
1.02399
1.04769
1.06662
1.08147
1.09281
1.10114
1.10684
1.11015
1.11122
1.11006
1.10654
1.10043
1.09133
1.07876
1.06214
1.04081
1.01408
0.981309
0.941906
0.895461
0.841798
0.781065
0.713816
0.641099
0.564527
0.486363
0.409572
0.338011
0.298619
0.210137
0.139209
0.0884031
0.0547306
0.0310157
0.0146358
0.00486326
0.000927445
3.65891e-05
0.0811692
0.230278
0.37101
0.500717
0.617662
0.721646
0.812737
0.891466
0.958753
1.01568
1.06335
1.10284
1.13519
1.16137
1.18224
1.19857
1.21103
1.22016
1.22637
1.22995
1.23106
1.2297
1.22572
1.21885
1.20865
1.19459
1.17598
1.15211
1.12221
1.08554
1.04147
0.989533
0.929543
0.861675
0.786558
0.705363
0.6199
0.532737
0.447272
0.367202
0.313737
0.219223
0.138749
0.0871602
0.0559028
0.0331455
0.015678
0.00521754
0.00093585
3.17584e-05
0.0888957
0.250787
0.403641
0.544741
0.672194
0.785529
0.884945
0.971072
1.04464
1.10683
1.15886
1.20192
1.23714
1.26559
1.28824
1.30593
1.31941
1.32925
1.33593
1.33976
1.3409
1.33934
1.33494
1.32737
1.31616
1.3007
1.28026
1.25404
1.2212
1.18092
1.13252
1.07549
1.00964
0.935149
0.852713
0.763582
0.669645
0.573517
0.478632
0.388236
0.323141
0.218115
0.134286
0.0849884
0.0569093
0.033963
0.0155557
0.00511394
0.000894425
3.28643e-05
0.0959167
0.269227
0.43286
0.584074
0.720864
0.842476
0.949377
1.04205
1.12125
1.18816
1.24411
1.29036
1.32815
1.35864
1.38288
1.4018
1.41617
1.42666
1.43376
1.4378
1.43896
1.43723
1.43244
1.42424
1.41212
1.39541
1.37332
1.34499
1.30949
1.26597
1.21367
1.15205
1.08092
1.00047
0.911445
0.815186
0.71366
0.609476
0.506023
0.406945
0.337813
0.223369
0.138486
0.0901017
0.0613143
0.031825
0.0127134
0.00457887
0.000747298
3.59028e-05
0.102107
0.285348
0.458312
0.618268
0.763134
0.892022
1.00526
1.10352
1.18765
1.2587
1.31806
1.36711
1.40715
1.43942
1.46505
1.48503
1.50019
1.51124
1.5187
1.52293
1.52411
1.52223
1.51711
1.50836
1.49544
1.47764
1.45411
1.42392
1.38611
1.33974
1.28403
1.21841
1.14266
1.05701
0.962249
0.859821
0.751847
0.641108
0.531209
0.426743
0.356347
0.23787
0.151277
0.100774
0.0677083
0.0331083
0.0149837
0.00529705
0.00095143
6.58943e-05
0.107379
0.298989
0.479783
0.647063
0.798696
0.933714
1.05219
1.15515
1.24342
1.31796
1.3802
1.4316
1.47355
1.50733
1.53414
1.55501
1.57085
1.58237
1.59014
1.59453
1.59573
1.59373
1.58833
1.57912
1.56553
1.54681
1.52206
1.4903
1.45052
1.40175
1.34315
1.27414
1.1945
1.10447
1.00491
0.897336
0.784056
0.668099
0.553324
0.44465
0.371849
0.253159
0.163499
0.109573
0.0727046
0.0346901
0.0157814
0.00500082
0.00109796
8.32923e-05
0.111685
0.310072
0.49718
0.67036
0.827445
0.96741
1.09019
1.19684
1.28837
1.36575
1.43035
1.48367
1.52716
1.56217
1.58994
1.61155
1.62794
1.63985
1.64788
1.65241
1.65363
1.65154
1.64591
1.63634
1.6222
1.60273
1.57699
1.54396
1.50258
1.45184
1.39089
1.31913
1.23633
1.14277
1.03935
0.927672
0.810178
0.690128
0.571632
0.459615
0.382388
0.262752
0.169784
0.11345
0.0748979
0.0361624
0.0167358
0.00568559
0.00123151
5.87286e-05
0.115003
0.318579
0.510504
0.688174
0.849415
0.993161
1.11927
1.22865
1.32262
1.4022
1.4686
1.5234
1.56809
1.60405
1.63257
1.65475
1.67157
1.68379
1.69203
1.69667
1.69792
1.69576
1.68996
1.68011
1.66557
1.64552
1.61901
1.58499
1.54238
1.49013
1.42737
1.35348
1.26826
1.172
1.06563
0.95084
0.83013
0.706868
0.585256
0.470098
0.389722
0.267841
0.172416
0.114675
0.0758758
0.0379385
0.0173439
0.00606533
0.00107372
8.83966e-05
0.117339
0.324548
0.51983
0.700624
0.864755
1.01114
1.13958
1.25085
1.34648
1.42757
1.49524
1.55109
1.59662
1.63327
1.66232
1.68492
1.70205
1.7145
1.72289
1.72762
1.7289
1.7267
1.7208
1.71075
1.69592
1.67547
1.64842
1.6137
1.5702
1.51687
1.45282
1.37744
1.2905
1.19234
1.08392
0.966979
0.84407
0.718622
0.594932
0.477958
0.396028
0.272553
0.175365
0.116361
0.0773646
0.0389632
0.0183698
0.0065923
0.00126866
8.44759e-05
0.118728
0.328105
0.5254
0.708064
0.873923
1.02189
1.15174
1.26413
1.36069
1.44265
1.5111
1.56759
1.61364
1.6507
1.68008
1.70294
1.72027
1.73288
1.74138
1.74617
1.74748
1.74527
1.73932
1.72917
1.71417
1.69348
1.66611
1.63096
1.58693
1.53294
1.46811
1.3918
1.30383
1.20451
1.09485
0.976616
0.852413
0.725706
0.600853
0.482984
0.400709
0.277617
0.179562
0.119052
0.0788859
0.039223
0.0188627
0.00728497
0.00211485
0.000211239
0.119221
0.329379
0.527404
0.710741
0.877212
1.02573
1.15607
1.26885
1.36565
1.44787
1.5166
1.57332
1.61955
1.65677
1.68628
1.70924
1.72666
1.73933
1.74789
1.75273
1.75407
1.75188
1.74593
1.73577
1.72073
1.69997
1.6725
1.63721
1.59298
1.53875
1.47361
1.39696
1.30858
1.20881
1.09868
0.979967
0.855304
0.728198
0.603068
0.485206
0.401802
0.280915
0.182302
0.120981
0.0797986
0.039993
0.0190472
0.00764344
0.00239698
0.000385937
0.11886
0.328458
0.525957
0.708786
0.874759
1.0228
1.15268
1.26505
1.36153
1.44345
1.51191
1.56842
1.6145
1.65159
1.68101
1.70392
1.7213
1.73396
1.74252
1.74739
1.74876
1.74663
1.74074
1.73066
1.71571
1.69506
1.6677
1.63255
1.58847
1.5344
1.46945
1.393
1.30485
1.20534
1.09548
0.977062
0.852708
0.725905
0.601006
0.483059
0.398828
0.279806
0.181315
0.120247
0.0793212
0.0396855
0.0187741
0.00740879
0.00215548
0.000240364
0.117634
0.325308
0.520983
0.702072
0.866394
1.01288
1.14135
1.25252
1.348
1.429
1.49668
1.55254
1.59811
1.63481
1.66392
1.6866
1.70382
1.71639
1.7249
1.72976
1.73117
1.72912
1.72335
1.71343
1.6987
1.67832
1.65129
1.61654
1.57295
1.51945
1.45516
1.37948
1.29219
1.19364
1.08484
0.967533
0.844329
0.718678
0.594904
0.478043
0.39256
0.275127
0.17735
0.117429
0.0775129
0.038776
0.0180763
0.006803
0.00174601
9.48849e-05
0.115506
0.319832
0.512338
0.690408
0.851882
0.995721
1.12179
1.23098
1.3247
1.40416
1.47052
1.5253
1.57001
1.60602
1.63461
1.65689
1.67383
1.68621
1.69461
1.69944
1.70089
1.69893
1.69333
1.68365
1.66925
1.64929
1.6228
1.58872
1.54594
1.49343
1.4303
1.35595
1.27019
1.17335
1.06641
0.951097
0.829941
0.706306
0.58437
0.468951
0.385542
0.269494
0.173358
0.114722
0.0755714
0.0373875
0.0173459
0.00622394
0.00150243
9.46143e-05
0.11241
0.311867
0.499771
0.673469
0.830831
0.970866
1.09352
1.19987
1.29108
1.36829
1.43277
1.48602
1.52949
1.56452
1.59236
1.61407
1.6306
1.6427
1.65093
1.65569
1.65716
1.65531
1.64993
1.64057
1.6266
1.60723
1.58149
1.54835
1.50673
1.45562
1.39416
1.32176
1.23824
1.1439
1.03971
0.927351
0.809294
0.688848
0.570194
0.458353
0.375948
0.265057
0.170762
0.113353
0.0743005
0.0357259
0.0166815
0.00581328
0.00126119
6.35098e-05
0.108361
0.301415
0.483261
0.651203
0.803165
0.938225
1.05648
1.15903
1.24693
1.32121
1.38325
1.43451
1.47636
1.51012
1.53696
1.55793
1.57391
1.58563
1.59363
1.59828
1.59977
1.59805
1.59292
1.58395
1.57054
1.55191
1.52714
1.49522
1.45511
1.40584
1.34657
1.27674
1.19617
1.10516
1.00463
0.896191
0.782232
0.665926
0.551278
0.442969
0.364807
0.258218
0.167086
0.111495
0.0729755
0.0340747
0.0157426
0.00506886
0.000841524
6.93496e-05
0.10337
0.288477
0.462787
0.623571
0.768824
0.897723
1.01064
1.1084
1.19212
1.26281
1.32186
1.37066
1.41053
1.44271
1.46833
1.48837
1.50367
1.51491
1.52261
1.52712
1.5286
1.52703
1.5222
1.5137
1.50096
1.48324
1.45964
1.42922
1.39098
1.34399
1.28745
1.22082
1.14393
1.05708
0.961141
0.857657
0.748899
0.637899
0.528582
0.425862
0.344771
0.245744
0.158361
0.105426
0.0695147
0.0326179
0.0148577
0.00551795
0.000800835
4.77669e-05
0.0974744
0.273105
0.438405
0.590626
0.727868
0.849448
0.955951
1.04808
1.12677
1.19322
1.24873
1.29462
1.33215
1.36247
1.38664
1.40557
1.42005
1.43072
1.43805
1.44237
1.44384
1.44243
1.43794
1.42998
1.41803
1.40136
1.37917
1.35052
1.3145
1.27022
1.21694
1.15414
1.08166
0.999795
0.90937
0.811846
0.709341
0.604591
0.500895
0.402172
0.327406
0.228739
0.143888
0.0946587
0.0638041
0.03139
0.0126309
0.00474173
0.00075741
2.75627e-05
0.0907422
0.255415
0.410264
0.552554
0.680525
0.793798
0.892757
0.978316
1.05128
1.11287
1.16434
1.20691
1.24176
1.26996
1.29246
1.31012
1.32365
1.33364
1.34054
1.34464
1.34608
1.34483
1.34072
1.33338
1.32231
1.30686
1.28626
1.25966
1.2262
1.18505
1.13552
1.07715
1.00978
0.93369
0.849669
0.75911
0.664054
0.567165
0.471619
0.38117
0.310338
0.216288
0.133173
0.0849493
0.057263
0.0338713
0.0144213
0.00480164
0.000883258
2.56931e-05
0.0832783
0.235609
0.378649
0.509717
0.627231
0.731146
0.821769
0.89987
0.966445
1.02264
1.06962
1.10852
1.1404
1.16623
1.18688
1.20311
1.21558
1.22481
1.23121
1.23504
1.23643
1.23536
1.23165
1.22499
1.21491
1.20081
1.18199
1.15767
1.12707
1.08943
1.04412
0.990713
0.929075
0.859466
0.782626
0.699856
0.6131
0.524983
0.438696
0.357796
0.30388
0.21474
0.132725
0.0834426
0.0545762
0.0328131
0.01541
0.00503326
0.000837963
3.23483e-05
0.0752259
0.213983
0.344001
0.462718
0.568879
0.662377
0.743836
0.813886
0.873557
0.92393
0.966074
1.00101
1.02968
1.05294
1.07158
1.08626
1.09756
1.10595
1.11179
1.11532
1.11664
1.11575
1.11247
1.10653
1.09752
1.08488
1.06799
1.04617
1.01868
0.984866
0.944153
0.896159
0.840771
0.778228
0.709207
0.634906
0.557144
0.478551
0.402785
0.334097
0.278413
0.214019
0.137763
0.0867452
0.0549337
0.0320291
0.0151757
0.00499644
0.000872252
3.29762e-05
0.0667628
0.190933
0.306925
0.412348
0.506361
0.588887
0.660514
0.722048
0.774451
0.818709
0.855775
0.886543
0.911837
0.932401
0.948906
0.961937
0.971993
0.979483
0.984718
0.987906
0.989146
0.988419
0.98559
0.980407
0.972504
0.961409
0.946568
0.92737
0.903186
0.873425
0.837586
0.795333
0.746565
0.691495
0.630716
0.565267
0.496683
0.427161
0.359977
0.299281
0.239776
0.174804
0.117509
0.0733364
0.0445418
0.0238212
0.0098438
0.00313173
0.000417739
1.27275e-05
0.0580947
0.166962
0.268241
0.359831
0.441058
0.512186
0.573729
0.626539
0.671514
0.70953
0.741414
0.767925
0.789761
0.807551
0.821859
0.833181
0.841939
0.848482
0.853075
0.855897
0.857031
0.856464
0.85408
0.849663
0.842898
0.833383
0.82064
0.804144
0.783357
0.757768
0.726948
0.690606
0.648652
0.601266
0.548953
0.492584
0.433385
0.372862
0.313011
0.257255
0.204712
0.151125
0.103478
0.0667441
0.0393552
0.0202563
0.00860798
0.00248949
0.000362469
1.23221e-05
0.0494382
0.142647
0.228872
0.306409
0.374783
0.434382
0.485849
0.529985
0.567592
0.599422
0.626164
0.648445
0.666835
0.681849
0.69395
0.703546
0.710988
0.716563
0.720494
0.722929
0.723941
0.723518
0.721564
0.717899
0.712262
0.704315
0.69366
0.679858
0.662459
0.641034
0.615224
0.584783
0.549631
0.509909
0.466025
0.418705
0.368979
0.318003
0.266845
0.217669
0.171426
0.127536
0.088564
0.0572606
0.0336668
0.0172038
0.00717511
0.00209071
0.000307451
1.04319e-05
0.0410142
0.118643
0.189947
0.25357
0.309364
0.357778
0.399514
0.435304
0.465833
0.491718
0.513511
0.531708
0.54676
0.559075
0.56902
0.576923
0.583065
0.587679
0.590947
0.592988
0.593863
0.593562
0.59201
0.589062
0.584504
0.578065
0.569422
0.558218
0.544088
0.526685
0.505716
0.480978
0.452402
0.42009
0.384348
0.345724
0.305042
0.263298
0.221263
0.180201
0.141385
0.10549
0.0738139
0.047882
0.0281504
0.0143752
0.00595846
0.00173522
0.00025549
8.67008e-06
0.0330328
0.0956239
0.152604
0.202972
0.246858
0.284798
0.31747
0.345506
0.369463
0.389821
0.407
0.421378
0.433295
0.443064
0.450968
0.45726
0.462161
0.465852
0.468476
0.470128
0.470857
0.470656
0.469466
0.467174
0.463616
0.458576
0.451804
0.443019
0.431936
0.418282
0.401826
0.382409
0.359974
0.334595
0.306496
0.276069
0.243905
0.210804
0.177459
0.144702
0.113562
0.0849334
0.0597367
0.03891
0.0229252
0.0117277
0.00485813
0.00141452
0.000208279
7.06671e-06
0.0256836
0.0742371
0.11794
0.156166
0.189238
0.217749
0.2423
0.263401
0.281475
0.296872
0.309897
0.32082
0.329892
0.337341
0.343378
0.348192
0.351947
0.354782
0.356805
0.358088
0.358669
0.358543
0.357667
0.355957
0.353288
0.3495
0.344403
0.337787
0.329437
0.319147
0.306744
0.292106
0.275186
0.256039
0.234828
0.211835
0.187459
0.162278
0.136874
0.111867
0.088
0.066029
0.0466629
0.0305447
0.0180697
0.00927646
0.0038509
0.00112257
0.000165342
5.60833e-06
0.0191345
0.0550822
0.0869654
0.11453
0.138224
0.158618
0.176199
0.191348
0.204361
0.215475
0.224898
0.232816
0.239403
0.244819
0.249214
0.252722
0.255464
0.257538
0.259022
0.25997
0.260409
0.260336
0.259721
0.258504
0.256596
0.253882
0.250225
0.245475
0.239477
0.232086
0.223174
0.212655
0.200493
0.186722
0.171459
0.154902
0.137324
0.119109
0.100691
0.0825312
0.0651475
0.0490899
0.0348789
0.0229691
0.0136684
0.00705513
0.00294114
0.000859619
0.000126725
4.29721e-06
0.0135184
0.0386334
0.0604997
0.0791666
0.0951326
0.108877
0.120759
0.13103
0.139878
0.147454
0.15389
0.159307
0.163817
0.16753
0.170546
0.172956
0.174841
0.176269
0.177295
0.177953
0.178264
0.178226
0.177819
0.177002
0.175715
0.173879
0.171404
0.168187
0.164123
0.159113
0.153072
0.145941
0.137694
0.128354
0.117994
0.106751
0.0948059
0.082403
0.0698363
0.0574247
0.045514
0.0344703
0.0246464
0.016351
0.00980765
0.0051021
0.0021412
0.000628632
9.28335e-05
3.14722e-06
0.008922
0.0252043
0.0390598
0.0507434
0.0607129
0.0693176
0.0767847
0.0832628
0.0888589
0.0936601
0.0977442
0.101185
0.104052
0.106414
0.108333
0.109868
0.11107
0.111982
0.112638
0.113062
0.113265
0.113248
0.112997
0.112487
0.11168
0.110528
0.108971
0.106946
0.104387
0.101232
0.0974274
0.0929353
0.0877407
0.0818558
0.0753262
0.0682358
0.0606996
0.052867
0.0449193
0.0370583
0.0294994
0.0224673
0.0161799
0.0108298
0.00656307
0.0034519
0.0014635
0.000432868
6.41258e-05
2.17381e-06
0.00537695
0.0149213
0.0228261
0.0294283
0.0350708
0.0399645
0.0442301
0.0479426
0.0511563
0.0539168
0.0562669
0.0582475
0.0598989
0.0612593
0.0623654
0.0632503
0.0639436
0.0644704
0.0648501
0.0650966
0.0652165
0.0652099
0.0650696
0.0647808
0.0643219
0.0636649
0.0627767
0.0616205
0.0601587
0.0583557
0.0561809
0.0536129
0.0506433
0.047279
0.0435455
0.0394897
0.035178
0.0306948
0.0261423
0.0216351
0.0172953
0.0132481
0.00961425
0.00650045
0.00398993
0.0021302
0.00091723
0.000274713
4.09373e-05
1.38811e-06
0.00285069
0.00769839
0.0115981
0.0148448
0.0176365
0.0200722
0.0222036
0.0240625
0.0256732
0.0270575
0.0282362
0.0292296
0.0300579
0.0307403
0.0312952
0.0317392
0.0320873
0.0323521
0.0325433
0.0326678
0.0327291
0.0327273
0.0326587
0.0325159
0.0322881
0.0319613
0.031519
0.0309427
0.0302138
0.0293143
0.028229
0.0269474
0.0254652
0.023786
0.0219225
0.0198978
0.0177451
0.0155066
0.0132329
0.010981
0.00881139
0.0067853
0.00496113
0.00338997
0.00211142
0.00114929
0.000506386
0.000155003
2.33777e-05
7.93738e-07
0.00124162
0.0032196
0.00477337
0.00607544
0.00720483
0.00819507
0.00906334
0.00982108
0.0104777
0.011042
0.0115223
0.011927
0.0122644
0.0125423
0.0127683
0.0129492
0.013091
0.013199
0.0132771
0.0133281
0.0133535
0.0133533
0.013326
0.0132685
0.0131764
0.0130441
0.0128648
0.0126309
0.0123349
0.0119695
0.0115285
0.0110075
0.0104049
0.00972227
0.00896469
0.00814155
0.00726637
0.00635641
0.00543221
0.0045169
0.00363497
0.00281107
0.00206842
0.00142703
0.000902012
0.000502084
0.000228373
7.25864e-05
1.12464e-05
3.83872e-07
0.000384758
0.000945032
0.00138324
0.00175551
0.00208048
0.00236586
0.00261609
0.00283437
0.00302343
0.00318581
0.00332398
0.00344036
0.00353734
0.00361722
0.00368216
0.00373414
0.00377492
0.00380598
0.00382848
0.00384322
0.00385064
0.0038507
0.00384298
0.00382661
0.0038003
0.00376241
0.00371097
0.00364382
0.00355874
0.00345364
0.00332675
0.00317681
0.00300333
0.00280677
0.00258865
0.00235166
0.00209971
0.00183779
0.00157184
0.00130851
0.00105488
0.000817982
0.000604437
0.000419888
0.000268513
0.000152554
7.19521e-05
2.42395e-05
3.99636e-06
1.39011e-07
5.98888e-05
0.000139905
0.000203697
0.000258295
0.000305965
0.000347794
0.000384441
0.000416387
0.000444041
0.000467779
0.000487967
0.000504965
0.000519123
0.000530781
0.000540255
0.000547839
0.00055379
0.000558325
0.000561614
0.000563775
0.000564871
0.000564899
0.00056379
0.000561419
0.000557596
0.000552075
0.000544566
0.000534751
0.000522302
0.000506907
0.000488307
0.000466319
0.000440867
0.000412022
0.000380009
0.000345226
0.000308248
0.000269815
0.000230802
0.000192189
0.000155014
0.000120311
8.90457e-05
6.20364e-05
3.98856e-05
2.29113e-05
1.10789e-05
3.9588e-06
7.36061e-07
2.7742e-08
2.04019e-06
4.77688e-06
6.94446e-06
8.79547e-06
1.04103e-05
1.18264e-05
1.30666e-05
1.41472e-05
1.50821e-05
1.58843e-05
1.65663e-05
1.71402e-05
1.7618e-05
1.80113e-05
1.83309e-05
1.85866e-05
1.87873e-05
1.89402e-05
1.90513e-05
1.91245e-05
1.91618e-05
1.91633e-05
1.91264e-05
1.90469e-05
1.89184e-05
1.87324e-05
1.84789e-05
1.81471e-05
1.77257e-05
1.72041e-05
1.65733e-05
1.58272e-05
1.49632e-05
1.39835e-05
1.2896e-05
1.17143e-05
1.04579e-05
9.15213e-06
7.8269e-06
6.51565e-06
5.25373e-06
4.07635e-06
3.01626e-06
2.10115e-06
1.35121e-06
7.77078e-07
3.7757e-07
1.37269e-07
2.74611e-08
1.76145e-09
1.40627e-06
3.00851e-08
8.66802e-09
5.59568e-10
3.86252e-11
2.04309e-12
6.26339e-14
2.8582e-15
1e-15
1e-15
1e-15
1.19172e-15
1.77862e-15
1e-15
1e-15
2.16762e-12
8.79483e-11
1.94475e-09
3.98646e-08
8.78827e-07
3.12785e-05
3.3184e-06
2.91861e-07
2.45283e-08
2.18169e-09
7.42895e-11
2.62901e-12
6.25418e-14
1e-15
1e-15
2.32883e-15
4.48888e-14
3.40598e-13
2.34743e-12
1.50873e-11
3.58749e-10
9.35187e-09
1.95469e-07
3.92067e-06
7.68088e-05
1.24559e-05
3.42115e-07
7.17794e-08
5.48601e-09
4.54471e-10
1.7963e-11
6.23722e-13
1.13629e-14
1.44346e-15
1e-15
1e-15
7.56429e-15
5.8489e-14
6.40016e-13
5.56499e-12
1.0616e-10
2.02573e-09
4.18337e-08
8.66344e-07
1.89031e-05
1.75703e-09
2.73876e-08
1.36786e-07
3.75384e-07
7.6878e-07
1.32768e-06
2.04838e-06
2.9147e-06
3.90082e-06
4.97412e-06
6.09834e-06
7.23664e-06
8.35436e-06
9.42118e-06
1.04126e-05
1.13107e-05
1.21043e-05
1.27886e-05
1.33641e-05
1.3836e-05
1.42129e-05
1.45053e-05
1.47252e-05
1.48848e-05
1.49961e-05
1.507e-05
1.51164e-05
1.51434e-05
1.51578e-05
1.5165e-05
1.51691e-05
1.5173e-05
1.51789e-05
1.51887e-05
1.52035e-05
1.52247e-05
1.52537e-05
1.52917e-05
1.53405e-05
1.54017e-05
1.54775e-05
1.55698e-05
1.56806e-05
1.58117e-05
1.5964e-05
1.61375e-05
1.6331e-05
1.65417e-05
1.67656e-05
1.69972e-05
1.72308e-05
1.74601e-05
1.76796e-05
1.78844e-05
1.80706e-05
1.82357e-05
1.83782e-05
1.84976e-05
1.85952e-05
1.86723e-05
1.87314e-05
1.8775e-05
1.88061e-05
1.88271e-05
1.88405e-05
1.88485e-05
1.88527e-05
1.88544e-05
1.88547e-05
1.88542e-05
1.88533e-05
1.88523e-05
1.88514e-05
1.88506e-05
1.88501e-05
1.88496e-05
1.88492e-05
1.88487e-05
1.88479e-05
1.88466e-05
1.88446e-05
1.88416e-05
1.88371e-05
1.88305e-05
1.8821e-05
1.88076e-05
1.87892e-05
1.87641e-05
1.87308e-05
1.8687e-05
1.86308e-05
1.85599e-05
1.84721e-05
1.83658e-05
1.82402e-05
1.80962e-05
1.79376e-05
1.77731e-05
1.76195e-05
1.75091e-05
2.76802e-08
7.34241e-07
3.9452e-06
1.10193e-05
2.27059e-05
3.93161e-05
6.07376e-05
8.64871e-05
0.000115794
0.000147685
0.000181083
0.000214892
0.000248082
0.000279753
0.000309179
0.000335827
0.000359369
0.000379661
0.000396723
0.000410709
0.000421871
0.000430528
0.000437034
0.000441753
0.000445038
0.000447216
0.000448577
0.000449367
0.000449786
0.000449993
0.000450107
0.000450218
0.000450391
0.000450676
0.000451115
0.000451746
0.000452606
0.000453738
0.000455189
0.000457013
0.00045927
0.000462021
0.000465325
0.000469232
0.000473772
0.000478945
0.000484716
0.000491002
0.00049768
0.000504591
0.000511558
0.000518399
0.000524946
0.000531054
0.000536611
0.000541534
0.000545785
0.000549349
0.00055226
0.000554563
0.000556326
0.000557632
0.000558559
0.000559189
0.000559593
0.000559832
0.000559959
0.000560012
0.000560022
0.000560008
0.000559982
0.000559954
0.000559927
0.000559905
0.000559889
0.000559875
0.000559863
0.000559846
0.000559823
0.000559785
0.000559726
0.000559636
0.000559502
0.000559305
0.000559023
0.000558626
0.000558076
0.000557331
0.000556338
0.000555036
0.000553363
0.000551252
0.000548639
0.000545476
0.000541739
0.000537454
0.000532733
0.000527833
0.000523255
0.000519946
1.38916e-07
3.99198e-06
2.41914e-05
7.16893e-05
0.000151548
0.000265537
0.000412726
0.000589705
0.00079109
0.00101014
0.00123938
0.00147128
0.00169875
0.00191562
0.00211693
0.00229906
0.00245979
0.00259817
0.00271437
0.00280948
0.00288525
0.00294389
0.00298784
0.0030196
0.00304159
0.00305607
0.00306501
0.0030701
0.00307271
0.00307391
0.00307452
0.00307514
0.00307623
0.00307812
0.00308108
0.00308539
0.0030913
0.0030991
0.00310912
0.00312173
0.00313735
0.00315641
0.00317932
0.00320644
0.00323798
0.00327394
0.00331409
0.00335784
0.00340434
0.00345248
0.00350099
0.00354863
0.00359421
0.00363673
0.00367541
0.00370967
0.00373926
0.00376408
0.00378434
0.0038004
0.0038127
0.00382182
0.00382832
0.00383275
0.00383561
0.00383732
0.00383824
0.00383864
0.00383874
0.00383866
0.0038385
0.00383831
0.00383814
0.00383799
0.00383788
0.00383779
0.0038377
0.00383759
0.00383742
0.00383716
0.00383676
0.00383614
0.00383522
0.00383386
0.00383192
0.00382918
0.0038254
0.00382027
0.00381342
0.00380445
0.00379292
0.00377837
0.00376036
0.00373855
0.00371277
0.00368317
0.00365051
0.00361652
0.00358461
0.00356097
3.84767e-07
1.12716e-05
7.27007e-05
0.000228401
0.00050079
0.000895865
0.00140903
0.00202735
0.00273126
0.00349662
0.00429694
0.00510563
0.00589783
0.00665201
0.00735093
0.00798217
0.00853815
0.00901577
0.00941588
0.00974243
0.0100017
0.0102015
0.0103505
0.0104573
0.0105306
0.0105781
0.0106067
0.0106223
0.0106297
0.0106325
0.0106335
0.0106349
0.010638
0.0106441
0.0106542
0.010669
0.0106896
0.010717
0.0107523
0.0107968
0.010852
0.0109195
0.0110009
0.0110972
0.0112095
0.0113378
0.0114811
0.0116375
0.0118039
0.0119762
0.0121498
0.0123203
0.0124833
0.0126353
0.0127736
0.012896
0.0130017
0.0130904
0.0131628
0.0132202
0.0132643
0.013297
0.0133203
0.0133363
0.0133467
0.013353
0.0133565
0.0133581
0.0133585
0.0133583
0.0133578
0.0133572
0.0133567
0.0133562
0.0133558
0.0133555
0.0133552
0.0133548
0.0133542
0.0133533
0.0133519
0.0133498
0.0133465
0.0133418
0.013335
0.0133254
0.0133122
0.0132942
0.0132702
0.0132388
0.0131984
0.0131474
0.0130842
0.0130076
0.0129169
0.0128126
0.012697
0.012576
0.0124613
0.012374
7.98533e-07