/*--------------------------------*- C++ -*----------------------------------*\
| =========                 |                                                 |
| \\      /  F ield         | foam-extend: Open Source CFD                    |
|  \\    /   O peration     | Version:     4.0                                |
|   \\  /    A nd           | Web:         http://www.foam-extend.org         |
|    \\/     M anipulation  |                                                 |
\*---------------------------------------------------------------------------*/
FoamFile
{
    version     2.0;
    format      ascii;
    class       volScalarField;
    location    "0.0006";
    object      nut;
}
// * * * * * * * * * * * * * * * * * * * * * * * * * * * * * * * * * * * * * //

dimensions      [0 2 -1 0 0 0 0];

internalField   nonuniform List<scalar> 
28770
(
8.37041e-14
2.0524e-13
3.08413e-13
4.02389e-13
4.86885e-13
5.63478e-13
6.32154e-13
6.93198e-13
7.46883e-13
7.93561e-13
8.33667e-13
8.67699e-13
8.96197e-13
9.19723e-13
9.38837e-13
9.5408e-13
9.65948e-13
9.74883e-13
9.81254e-13
9.85348e-13
9.87358e-13
9.8738e-13
9.85409e-13
9.81327e-13
9.74923e-13
9.65894e-13
9.53851e-13
9.38341e-13
9.1887e-13
8.94935e-13
8.66063e-13
8.31854e-13
7.92028e-13
7.46476e-13
6.95306e-13
6.38884e-13
5.77862e-13
5.13197e-13
4.46143e-13
3.78229e-13
3.11202e-13
2.46946e-13
1.87369e-13
1.34265e-13
8.917e-14
5.32115e-14
2.69703e-14
1.03273e-14
2.23433e-15
1.64624e-16
1.76029e-11
3.60756e-11
5.3326e-11
6.94064e-11
8.3937e-11
9.71079e-11
1.08923e-10
1.19424e-10
1.28659e-10
1.3669e-10
1.43589e-10
1.49444e-10
1.54346e-10
1.58394e-10
1.61682e-10
1.64305e-10
1.66347e-10
1.67884e-10
1.6898e-10
1.69684e-10
1.70029e-10
1.70032e-10
1.69691e-10
1.68986e-10
1.6788e-10
1.66322e-10
1.64243e-10
1.61567e-10
1.58207e-10
1.54077e-10
1.49095e-10
1.43194e-10
1.36324e-10
1.28468e-10
1.19644e-10
1.09915e-10
9.93956e-11
8.82496e-11
7.6694e-11
6.49926e-11
5.34467e-11
4.23811e-11
3.21245e-11
2.2986e-11
1.5229e-11
9.04572e-12
4.5291e-12
1.64405e-12
2.4882e-13
2.53598e-15
4.63466e-10
7.79935e-10
1.09618e-09
1.40755e-09
1.69579e-09
1.95871e-09
2.19518e-09
2.40554e-09
2.59058e-09
2.7515e-09
2.88976e-09
3.00708e-09
3.10533e-09
3.18644e-09
3.25234e-09
3.3049e-09
3.34582e-09
3.37663e-09
3.39858e-09
3.41266e-09
3.41953e-09
3.4195e-09
3.41254e-09
3.39823e-09
3.37583e-09
3.34427e-09
3.30219e-09
3.24801e-09
3.18002e-09
3.09645e-09
2.99569e-09
2.87633e-09
2.73743e-09
2.57863e-09
2.40032e-09
2.20382e-09
1.99143e-09
1.76648e-09
1.53339e-09
1.29748e-09
1.06483e-09
8.42003e-10
6.35584e-10
4.5172e-10
2.9553e-10
1.70554e-10
7.864e-11
2.19011e-11
1.76407e-12
1.17394e-14
4.55682e-09
6.39357e-09
8.39457e-09
1.04927e-08
1.25129e-08
1.43902e-08
1.60938e-08
1.76153e-08
1.89562e-08
2.01232e-08
2.11263e-08
2.19777e-08
2.26906e-08
2.32792e-08
2.37575e-08
2.41388e-08
2.44357e-08
2.46591e-08
2.48181e-08
2.49199e-08
2.49691e-08
2.49679e-08
2.49159e-08
2.481e-08
2.46446e-08
2.44119e-08
2.41017e-08
2.37023e-08
2.32012e-08
2.25854e-08
2.18429e-08
2.09637e-08
1.99408e-08
1.87717e-08
1.74594e-08
1.60139e-08
1.4452e-08
1.27985e-08
1.10859e-08
9.35307e-09
7.64453e-09
6.00771e-09
4.48989e-09
3.13455e-09
1.97856e-09
1.05482e-09
4.07218e-10
8.23633e-11
4.9466e-12
3.054e-14
2.54035e-08
3.13114e-08
3.85128e-08
4.6528e-08
5.45813e-08
6.22672e-08
6.93544e-08
7.57411e-08
8.13974e-08
8.63334e-08
9.05826e-08
9.41918e-08
9.72156e-08
9.97126e-08
1.01741e-07
1.03359e-07
1.04618e-07
1.05565e-07
1.06239e-07
1.06668e-07
1.06873e-07
1.06862e-07
1.06633e-07
1.06172e-07
1.05454e-07
1.04445e-07
1.03101e-07
1.01371e-07
9.92004e-08
9.65332e-08
9.33176e-08
8.951e-08
8.50808e-08
8.00196e-08
7.434e-08
6.80843e-08
6.13263e-08
5.4172e-08
4.67596e-08
3.92552e-08
3.18466e-08
2.47344e-08
1.8121e-08
1.22071e-08
7.20954e-09
3.40667e-09
1.09192e-09
1.82309e-10
9.93294e-12
6.00683e-14
9.78282e-08
1.11232e-07
1.297e-07
1.51407e-07
1.74092e-07
1.96372e-07
2.17333e-07
2.36476e-07
2.53573e-07
2.68573e-07
2.81528e-07
2.92554e-07
3.01804e-07
3.09447e-07
3.1566e-07
3.20615e-07
3.24471e-07
3.27368e-07
3.29425e-07
3.3073e-07
3.31342e-07
3.31286e-07
3.3055e-07
3.2909e-07
3.26827e-07
3.23651e-07
3.19421e-07
3.13978e-07
3.07147e-07
2.98753e-07
2.88632e-07
2.76647e-07
2.62704e-07
2.4677e-07
2.28885e-07
2.09181e-07
1.87883e-07
1.65317e-07
1.41907e-07
1.18161e-07
9.46662e-08
7.20721e-08
5.11042e-08
3.26195e-08
1.76863e-08
7.41534e-09
2.08992e-09
3.18914e-10
1.67674e-11
1.00458e-13
2.91494e-07
3.16598e-07
3.54314e-07
4.01098e-07
4.51724e-07
5.02806e-07
5.51887e-07
5.97414e-07
6.38532e-07
6.74887e-07
7.06451e-07
7.33413e-07
7.56085e-07
7.7485e-07
7.90119e-07
8.02302e-07
8.11782e-07
8.18901e-07
8.23943e-07
8.27123e-07
8.28579e-07
8.28365e-07
8.26445e-07
8.22702e-07
8.16926e-07
8.08833e-07
7.98061e-07
7.84199e-07
7.66801e-07
7.45413e-07
7.19615e-07
6.89051e-07
6.53475e-07
6.12791e-07
5.67095e-07
5.16698e-07
4.62154e-07
4.04269e-07
3.441e-07
2.82968e-07
2.22473e-07
1.64576e-07
1.11729e-07
6.69563e-08
3.34196e-08
1.28025e-08
3.35046e-09
4.90251e-10
2.53564e-11
1.51069e-13
7.21053e-07
7.63587e-07
8.2969e-07
9.15544e-07
1.01122e-06
1.11008e-06
1.20695e-06
1.29825e-06
1.38174e-06
1.45625e-06
1.5214e-06
1.57733e-06
1.62454e-06
1.66371e-06
1.69564e-06
1.72115e-06
1.741e-06
1.7559e-06
1.76642e-06
1.773e-06
1.77591e-06
1.77525e-06
1.77093e-06
1.76266e-06
1.74997e-06
1.73222e-06
1.70862e-06
1.67824e-06
1.64009e-06
1.59315e-06
1.5365e-06
1.46931e-06
1.39102e-06
1.30139e-06
1.20057e-06
1.0892e-06
9.68473e-07
8.40153e-07
7.06675e-07
5.71263e-07
4.3816e-07
3.12918e-07
2.02469e-07
1.14218e-07
5.33495e-08
1.92591e-08
4.8376e-09
6.9282e-10
3.54953e-11
2.10639e-13
1.54788e-06
1.61718e-06
1.72285e-06
1.86298e-06
2.02262e-06
2.1908e-06
2.3585e-06
2.51892e-06
2.66746e-06
2.80138e-06
2.91942e-06
3.02138e-06
3.10784e-06
3.17985e-06
3.23869e-06
3.28577e-06
3.32244e-06
3.34992e-06
3.36927e-06
3.38123e-06
3.38628e-06
3.38455e-06
3.3758e-06
3.35944e-06
3.33452e-06
3.29974e-06
3.25351e-06
3.19397e-06
3.11915e-06
3.02701e-06
2.91562e-06
2.78335e-06
2.62898e-06
2.45195e-06
2.25249e-06
2.03185e-06
1.79244e-06
1.53806e-06
1.27424e-06
1.00869e-06
7.51885e-07
5.17241e-07
3.19681e-07
1.7147e-07
7.63414e-08
2.65483e-08
6.5141e-09
9.21632e-10
4.69184e-11
2.77579e-13
2.9677e-06
3.08466e-06
3.24469e-06
3.45356e-06
3.69512e-06
3.95351e-06
4.21489e-06
4.46826e-06
4.7056e-06
4.92173e-06
5.11382e-06
5.28089e-06
5.42335e-06
5.54249e-06
5.64017e-06
5.71847e-06
5.77951e-06
5.82522e-06
5.85722e-06
5.87671e-06
5.88438e-06
5.88033e-06
5.86403e-06
5.83435e-06
5.78948e-06
5.72704e-06
5.64406e-06
5.53715e-06
5.40264e-06
5.23674e-06
5.03587e-06
4.7969e-06
4.51751e-06
4.19659e-06
3.83458e-06
3.43399e-06
2.99986e-06
2.54044e-06
2.06798e-06
1.59965e-06
1.15787e-06
7.68756e-07
4.56777e-07
2.3569e-07
1.01501e-07
3.44656e-08
8.3362e-09
1.17079e-09
5.9343e-11
3.50368e-13
5.17493e-06
5.38677e-06
5.62656e-06
5.91673e-06
6.25452e-06
6.61976e-06
6.99335e-06
7.35947e-06
7.70595e-06
8.02436e-06
8.30967e-06
8.55955e-06
8.77385e-06
8.95392e-06
9.10207e-06
9.22113e-06
9.314e-06
9.38344e-06
9.43171e-06
9.46048e-06
9.4706e-06
9.462e-06
9.43363e-06
9.3834e-06
9.30816e-06
9.20375e-06
9.06507e-06
8.88628e-06
8.66101e-06
8.38273e-06
8.04516e-06
7.64284e-06
7.17177e-06
6.63013e-06
6.01922e-06
5.34443e-06
4.61649e-06
3.85274e-06
3.07842e-06
2.32708e-06
1.63891e-06
1.05508e-06
6.07235e-07
3.04464e-07
1.2815e-07
4.2835e-08
1.02609e-08
1.43434e-09
7.24609e-11
4.27163e-13
8.30477e-06
8.70526e-06
9.06135e-06
9.45784e-06
9.90377e-06
1.03863e-05
1.08829e-05
1.13735e-05
1.18416e-05
1.22752e-05
1.26665e-05
1.30115e-05
1.33091e-05
1.35604e-05
1.37678e-05
1.39349e-05
1.40654e-05
1.41626e-05
1.42295e-05
1.42682e-05
1.42794e-05
1.42627e-05
1.42161e-05
1.4136e-05
1.40172e-05
1.38528e-05
1.36346e-05
1.33532e-05
1.2998e-05
1.25586e-05
1.20247e-05
1.13875e-05
1.06409e-05
9.78265e-06
8.81663e-06
7.75447e-06
6.61797e-06
5.44093e-06
4.26967e-06
3.16085e-06
2.17492e-06
1.36543e-06
7.66066e-07
3.75945e-07
1.55789e-07
5.15742e-08
1.22761e-08
1.7113e-09
8.61529e-11
5.05793e-13
1.23737e-05
1.31235e-05
1.36616e-05
1.42064e-05
1.47708e-05
1.5375e-05
1.59967e-05
1.66132e-05
1.72047e-05
1.77559e-05
1.82564e-05
1.87003e-05
1.90851e-05
1.94114e-05
1.96818e-05
1.99001e-05
2.00704e-05
2.01967e-05
2.02825e-05
2.03298e-05
2.03392e-05
2.03093e-05
2.02366e-05
2.01154e-05
1.99374e-05
1.9692e-05
1.93667e-05
1.89466e-05
1.84161e-05
1.77587e-05
1.69591e-05
1.60042e-05
1.48858e-05
1.36027e-05
1.21643e-05
1.05942e-05
8.93306e-06
7.24006e-06
5.59074e-06
4.06849e-06
2.75059e-06
1.694e-06
9.30348e-07
4.48652e-07
1.84055e-07
6.0772e-08
1.44412e-08
2.01482e-09
1.01241e-10
5.93771e-13
1.72455e-05
1.8572e-05
1.93883e-05
2.01411e-05
2.08535e-05
2.15824e-05
2.2325e-05
2.30596e-05
2.37658e-05
2.44262e-05
2.50284e-05
2.55648e-05
2.60319e-05
2.64295e-05
2.67599e-05
2.70269e-05
2.7235e-05
2.73883e-05
2.74903e-05
2.75428e-05
2.75457e-05
2.7496e-05
2.73881e-05
2.72132e-05
2.69591e-05
2.66103e-05
2.61481e-05
2.55513e-05
2.47969e-05
2.38614e-05
2.2723e-05
2.13642e-05
1.97752e-05
1.79584e-05
1.5934e-05
1.37442e-05
1.14578e-05
9.16843e-06
6.98694e-06
5.02307e-06
3.36104e-06
2.0417e-06
1.09975e-06
5.2215e-07
2.13287e-07
7.0996e-08
1.69485e-08
2.37198e-09
1.18056e-10
6.83457e-13
2.26527e-05
2.48219e-05
2.60383e-05
2.70671e-05
2.79923e-05
2.88527e-05
2.97102e-05
3.05503e-05
3.13552e-05
3.21082e-05
3.2796e-05
3.34103e-05
3.39469e-05
3.44048e-05
3.4786e-05
3.50941e-05
3.53335e-05
3.55081e-05
3.5621e-05
3.56733e-05
3.56634e-05
3.55865e-05
3.54339e-05
3.51929e-05
3.48462e-05
3.4372e-05
3.37446e-05
3.29345e-05
3.19102e-05
3.06398e-05
2.90946e-05
2.72525e-05
2.51043e-05
2.26595e-05
1.99543e-05
1.70577e-05
1.40744e-05
1.11402e-05
8.40541e-06
6.00581e-06
4.01945e-06
2.40985e-06
1.27043e-06
5.97278e-07
2.46628e-07
8.47257e-08
2.06531e-08
2.92819e-09
1.43305e-10
7.61878e-13
2.82605e-05
3.15255e-05
3.32694e-05
3.46525e-05
3.58539e-05
3.68838e-05
3.78538e-05
3.87871e-05
3.96728e-05
4.04981e-05
4.12511e-05
4.19239e-05
4.25122e-05
4.30149e-05
4.34336e-05
4.37716e-05
4.40327e-05
4.42205e-05
4.43372e-05
4.43825e-05
4.43532e-05
4.42416e-05
4.40355e-05
4.37173e-05
4.32638e-05
4.2646e-05
4.18297e-05
4.07762e-05
3.94443e-05
3.77934e-05
3.57875e-05
3.34012e-05
3.06279e-05
2.74882e-05
2.40398e-05
2.03838e-05
1.66666e-05
1.30698e-05
9.78794e-06
6.9976e-06
5.44264e-06
3.09985e-06
1.61989e-06
7.76097e-07
3.43376e-07
1.29572e-07
3.68423e-08
6.30855e-09
4.61662e-10
3.03834e-12
3.37436e-05
3.8293e-05
4.06718e-05
4.24803e-05
4.39934e-05
4.52671e-05
4.63582e-05
4.73776e-05
4.83292e-05
4.9208e-05
5.00062e-05
5.07176e-05
5.13391e-05
5.18698e-05
5.23113e-05
5.26665e-05
5.29387e-05
5.31308e-05
5.32435e-05
5.32753e-05
5.32203e-05
5.30678e-05
5.28013e-05
5.23979e-05
5.18277e-05
5.10539e-05
5.0033e-05
4.87165e-05
4.70532e-05
4.49935e-05
4.24948e-05
3.953e-05
3.60975e-05
3.22324e-05
2.80171e-05
2.35877e-05
1.91317e-05
1.48725e-05
1.10382e-05
7.80683e-06
5.8506e-06
3.30555e-06
1.64887e-06
7.82495e-07
3.59918e-07
1.42838e-07
4.09059e-08
6.98406e-09
4.64591e-10
2.55998e-12
3.88429e-05
4.47696e-05
4.78496e-05
5.01322e-05
5.1989e-05
5.35444e-05
5.47961e-05
5.58991e-05
5.69073e-05
5.78254e-05
5.86526e-05
5.9386e-05
6.00245e-05
6.05684e-05
6.10194e-05
6.13804e-05
6.1654e-05
6.1842e-05
6.19442e-05
6.19568e-05
6.18715e-05
6.16739e-05
6.13432e-05
6.08507e-05
6.01597e-05
5.92249e-05
5.79937e-05
5.64076e-05
5.44058e-05
5.19299e-05
4.89321e-05
4.53851e-05
4.12942e-05
3.67112e-05
3.1745e-05
2.65659e-05
2.13983e-05
1.64984e-05
1.21181e-05
8.43646e-06
6.14218e-06
3.35207e-06
1.62604e-06
7.78379e-07
3.74633e-07
1.49954e-07
4.1631e-08
6.99861e-09
4.49697e-10
2.65349e-12
4.33863e-05
5.0683e-05
5.44799e-05
5.72538e-05
5.94683e-05
6.12971e-05
6.27653e-05
6.3961e-05
6.50216e-05
6.59704e-05
6.68155e-05
6.75592e-05
6.8203e-05
6.87489e-05
6.91994e-05
6.95572e-05
6.98247e-05
7.00027e-05
7.00895e-05
7.00794e-05
6.99612e-05
6.97173e-05
6.9322e-05
6.87412e-05
6.79311e-05
6.68385e-05
6.54019e-05
6.35532e-05
6.12226e-05
5.83443e-05
5.48663e-05
5.07623e-05
4.60465e-05
4.07878e-05
3.51216e-05
2.92511e-05
2.34339e-05
1.79529e-05
1.30775e-05
9.0043e-06
6.5258e-06
3.49007e-06
1.70502e-06
8.40096e-07
4.12133e-07
1.36166e-07
3.27376e-08
5.97394e-09
3.5231e-10
2.119e-12
4.72833e-05
5.58577e-05
6.03396e-05
6.35893e-05
6.61536e-05
6.82446e-05
6.99375e-05
7.12508e-05
7.23611e-05
7.33359e-05
7.41928e-05
7.49397e-05
7.55817e-05
7.61227e-05
7.65664e-05
7.69156e-05
7.71724e-05
7.73369e-05
7.74058e-05
7.73716e-05
7.72207e-05
7.69318e-05
7.64751e-05
7.5811e-05
7.48894e-05
7.36497e-05
7.20219e-05
6.99297e-05
6.72952e-05
6.40463e-05
6.01283e-05
5.5517e-05
5.02357e-05
4.43703e-05
3.80807e-05
3.16002e-05
2.52177e-05
1.92418e-05
1.39584e-05
9.58573e-06
6.98e-06
3.77093e-06
1.89024e-06
9.54498e-07
4.63e-07
1.44403e-07
3.94695e-08
7.10134e-09
4.58664e-10
3.89529e-12
5.05051e-05
6.02042e-05
6.53009e-05
6.89831e-05
7.18686e-05
7.42009e-05
7.60866e-05
7.75435e-05
7.87073e-05
7.9706e-05
8.05712e-05
8.1318e-05
8.19549e-05
8.2488e-05
8.29219e-05
8.32602e-05
8.35046e-05
8.36544e-05
8.37053e-05
8.36481e-05
8.34666e-05
8.31368e-05
8.26248e-05
8.18862e-05
8.08653e-05
7.94949e-05
7.76979e-05
7.53906e-05
7.24886e-05
6.89148e-05
6.46126e-05
5.95609e-05
5.37916e-05
4.74062e-05
4.05862e-05
3.35906e-05
2.6735e-05
2.03509e-05
1.4737e-05
1.01153e-05
7.37183e-06
4.06551e-06
2.0706e-06
1.05275e-06
5.04735e-07
1.53672e-07
4.21865e-08
6.77713e-09
5.3117e-10
4.92396e-12
5.30631e-05
6.3697e-05
6.93122e-05
7.33631e-05
7.65256e-05
7.90674e-05
8.11147e-05
8.27102e-05
8.39334e-05
8.49516e-05
8.58231e-05
8.65687e-05
8.71997e-05
8.77244e-05
8.81485e-05
8.84759e-05
8.87083e-05
8.88445e-05
8.88792e-05
8.88016e-05
8.85938e-05
8.82289e-05
8.76699e-05
8.68685e-05
8.57638e-05
8.42834e-05
8.23443e-05
7.98569e-05
7.67313e-05
7.2887e-05
6.82663e-05
6.28511e-05
5.66812e-05
4.98717e-05
4.26218e-05
3.52111e-05
2.79762e-05
2.12665e-05
1.53911e-05
1.05674e-05
7.66034e-06
4.26948e-06
2.17783e-06
1.10549e-06
5.28078e-07
1.62968e-07
4.555e-08
7.85301e-09
6.08239e-10
3.49685e-12
5.49893e-05
6.63498e-05
7.23723e-05
7.67154e-05
8.00992e-05
8.28099e-05
8.49859e-05
8.66915e-05
8.79779e-05
8.90134e-05
8.98899e-05
9.0634e-05
9.12599e-05
9.17775e-05
9.21933e-05
9.25116e-05
9.27341e-05
9.28591e-05
9.28807e-05
9.27868e-05
9.2558e-05
9.21654e-05
9.15692e-05
9.0718e-05
8.95473e-05
8.79801e-05
8.59291e-05
8.33e-05
7.99992e-05
7.59434e-05
7.10746e-05
6.53773e-05
5.88982e-05
5.17629e-05
4.41845e-05
3.64582e-05
2.89346e-05
2.19746e-05
1.5893e-05
1.09029e-05
7.87622e-06
4.39901e-06
2.23925e-06
1.13418e-06
5.44716e-07
1.75013e-07
4.85702e-08
8.70265e-09
5.17266e-10
7.41178e-12
5.63229e-05
6.81972e-05
7.45096e-05
7.90616e-05
8.26049e-05
8.54383e-05
8.77079e-05
8.94909e-05
9.08315e-05
9.1882e-05
9.27613e-05
9.3504e-05
9.41264e-05
9.46389e-05
9.5049e-05
9.53609e-05
9.55764e-05
9.56937e-05
9.5706e-05
9.56007e-05
9.53571e-05
9.49447e-05
9.43221e-05
9.34353e-05
9.22172e-05
9.05878e-05
8.84565e-05
8.57259e-05
8.22995e-05
7.80927e-05
7.30473e-05
6.71501e-05
6.04526e-05
5.30883e-05
4.52805e-05
3.7335e-05
2.9612e-05
2.24797e-05
1.62569e-05
1.11588e-05
8.05779e-06
4.51792e-06
2.30403e-06
1.16852e-06
5.67098e-07
1.85503e-07
5.37725e-08
1.00019e-08
6.37963e-10
7.14467e-12
5.71085e-05
6.92944e-05
7.57849e-05
8.04654e-05
8.41065e-05
8.70153e-05
8.93423e-05
9.11717e-05
9.255e-05
9.36108e-05
9.449e-05
9.52315e-05
9.58518e-05
9.63617e-05
9.67687e-05
9.70772e-05
9.72891e-05
9.74021e-05
9.74095e-05
9.72978e-05
9.70458e-05
9.6622e-05
9.59838e-05
9.50758e-05
9.38293e-05
9.21622e-05
8.99821e-05
8.71897e-05
8.36869e-05
7.9388e-05
7.42352e-05
6.82166e-05
6.1387e-05
5.38846e-05
4.5939e-05
3.78625e-05
3.00215e-05
2.27879e-05
1.6483e-05
1.13245e-05
8.18681e-06
4.63348e-06
2.38091e-06
1.21137e-06
5.90009e-07
1.93414e-07
5.88037e-08
1.24626e-08
1.63651e-09
3.83167e-11
5.73793e-05
6.96747e-05
7.62286e-05
8.09541e-05
8.46286e-05
8.75624e-05
8.99077e-05
9.17508e-05
9.31423e-05
9.42048e-05
9.50821e-05
9.58232e-05
9.64431e-05
9.69527e-05
9.73592e-05
9.76674e-05
9.78789e-05
9.79916e-05
9.79984e-05
9.78858e-05
9.76321e-05
9.72058e-05
9.65635e-05
9.56495e-05
9.43942e-05
9.2715e-05
9.05185e-05
8.77048e-05
8.41753e-05
7.98438e-05
7.46525e-05
6.85904e-05
6.17135e-05
5.41617e-05
4.6167e-05
3.80443e-05
3.01626e-05
2.28955e-05
1.65658e-05
1.13935e-05
8.21613e-06
4.70398e-06
2.42837e-06
1.2396e-06
6.03746e-07
2.01167e-07
6.19659e-08
1.45658e-08
2.47811e-09
1.95267e-10
5.71558e-05
6.93588e-05
7.58586e-05
8.0543e-05
8.4184e-05
8.70908e-05
8.94143e-05
9.12371e-05
9.26065e-05
9.36613e-05
9.45397e-05
9.52813e-05
9.59021e-05
9.64131e-05
9.68216e-05
9.71322e-05
9.73465e-05
9.74624e-05
9.7473e-05
9.73649e-05
9.71165e-05
9.66965e-05
9.6062e-05
9.51573e-05
9.39133e-05
9.22478e-05
9.00679e-05
8.72739e-05
8.37677e-05
7.94633e-05
7.43028e-05
6.82749e-05
6.14349e-05
5.39217e-05
4.59655e-05
3.78798e-05
3.00319e-05
2.27942e-05
1.64872e-05
1.13263e-05
8.13431e-06
4.68019e-06
2.41142e-06
1.22911e-06
5.97702e-07
1.97148e-07
5.94313e-08
1.31458e-08
1.75182e-09
5.24384e-11
5.643e-05
6.83364e-05
7.46616e-05
7.92164e-05
8.27557e-05
8.55818e-05
8.78414e-05
8.96087e-05
9.09319e-05
9.19725e-05
9.28489e-05
9.35904e-05
9.4213e-05
9.47271e-05
9.51397e-05
9.54552e-05
9.56753e-05
9.5798e-05
9.58166e-05
9.57181e-05
9.54817e-05
9.50766e-05
9.44611e-05
9.35805e-05
9.23673e-05
9.07408e-05
8.86096e-05
8.58758e-05
8.24425e-05
7.82246e-05
7.31643e-05
6.7249e-05
6.05313e-05
5.31462e-05
4.53187e-05
3.73565e-05
2.96212e-05
2.24815e-05
1.62562e-05
1.11609e-05
7.9623e-06
4.5779e-06
2.34182e-06
1.1876e-06
5.74214e-07
1.86261e-07
5.36858e-08
1.0562e-08
1.06466e-09
8.09232e-12
5.5174e-05
6.6579e-05
7.26122e-05
7.69514e-05
8.03233e-05
8.30179e-05
8.51738e-05
8.68528e-05
8.81134e-05
8.91353e-05
9.00052e-05
9.07454e-05
9.13701e-05
9.18885e-05
9.23071e-05
9.26299e-05
9.28585e-05
9.29911e-05
9.30213e-05
9.29371e-05
9.27186e-05
9.23363e-05
9.17501e-05
9.09076e-05
8.97436e-05
8.81801e-05
8.61288e-05
8.34945e-05
8.01829e-05
7.61105e-05
7.12197e-05
6.5496e-05
5.89877e-05
5.18227e-05
4.4217e-05
3.64682e-05
2.89281e-05
2.19573e-05
1.5869e-05
1.08763e-05
7.75889e-06
4.44771e-06
2.26499e-06
1.14341e-06
5.48103e-07
1.73711e-07
4.90312e-08
9.02703e-09
8.58887e-10
7.94174e-12
5.33284e-05
6.40213e-05
6.96458e-05
7.36858e-05
7.68273e-05
7.93425e-05
8.13575e-05
8.29154e-05
8.41061e-05
8.5106e-05
8.5966e-05
8.67038e-05
8.73308e-05
8.78546e-05
8.82807e-05
8.86127e-05
8.88519e-05
8.89969e-05
8.90421e-05
8.89764e-05
8.87811e-05
8.84289e-05
8.78821e-05
8.70912e-05
8.59944e-05
8.45178e-05
8.25774e-05
8.00823e-05
7.69419e-05
7.30754e-05
6.84256e-05
6.29758e-05
5.67682e-05
4.99209e-05
4.26369e-05
3.51992e-05
2.79459e-05
2.12273e-05
1.53525e-05
1.05385e-05
7.49317e-06
4.33074e-06
2.20419e-06
1.1127e-06
5.28429e-07
1.61839e-07
4.56836e-08
8.09921e-09
6.33584e-10
3.8923e-12
5.0862e-05
6.06351e-05
6.57389e-05
6.9402e-05
7.22565e-05
7.45501e-05
7.63899e-05
7.77984e-05
7.89249e-05
7.98989e-05
8.07462e-05
8.14803e-05
8.21092e-05
8.26387e-05
8.30728e-05
8.34147e-05
8.36657e-05
8.38248e-05
8.38872e-05
8.3843e-05
8.36757e-05
8.33601e-05
8.28616e-05
8.21347e-05
8.1122e-05
7.97551e-05
7.79552e-05
7.56374e-05
7.27162e-05
6.91145e-05
6.47763e-05
5.9682e-05
5.38667e-05
4.74358e-05
4.05752e-05
3.35481e-05
2.66731e-05
2.02849e-05
1.46826e-05
1.00771e-05
7.19e-06
4.17183e-06
2.12974e-06
1.07878e-06
5.10473e-07
1.51549e-07
4.22469e-08
6.89178e-09
4.07855e-10
4.09988e-12
4.77383e-05
5.64003e-05
6.08864e-05
6.41081e-05
6.66301e-05
6.867e-05
7.03042e-05
7.156e-05
7.2628e-05
7.35711e-05
7.4403e-05
7.51314e-05
7.57607e-05
7.62945e-05
7.67357e-05
7.70868e-05
7.73492e-05
7.75225e-05
7.76029e-05
7.75822e-05
7.74459e-05
7.7172e-05
7.67294e-05
7.60771e-05
7.51635e-05
7.39262e-05
7.22936e-05
7.01879e-05
6.753e-05
6.42479e-05
6.02874e-05
5.56265e-05
5.02917e-05
4.43736e-05
3.80373e-05
3.15212e-05
2.51193e-05
1.91457e-05
1.38895e-05
9.566e-06
6.70801e-06
3.92174e-06
1.99239e-06
1.00585e-06
4.79034e-07
1.42846e-07
3.92968e-08
7.42064e-09
3.86404e-10
2.82365e-12
4.394e-05
5.13337e-05
5.51303e-05
5.78668e-05
6.00279e-05
6.17928e-05
6.31919e-05
6.43251e-05
6.53372e-05
6.62468e-05
6.70602e-05
6.77795e-05
6.84058e-05
6.89404e-05
6.93852e-05
6.97424e-05
7.00138e-05
7.01995e-05
7.0297e-05
7.02999e-05
7.01961e-05
6.99669e-05
6.95854e-05
6.90159e-05
6.82128e-05
6.71213e-05
6.56778e-05
6.38127e-05
6.14551e-05
5.8539e-05
5.50132e-05
5.08537e-05
4.60782e-05
4.07608e-05
3.50422e-05
2.91318e-05
2.32925e-05
1.78094e-05
1.29451e-05
8.89875e-06
6.2756e-06
3.60084e-06
1.78507e-06
8.89802e-07
4.32754e-07
1.35026e-07
3.27512e-08
6.24882e-09
3.61212e-10
1.62901e-12
3.94868e-05
4.55128e-05
4.8586e-05
5.08217e-05
5.26154e-05
5.40969e-05
5.5272e-05
5.63102e-05
5.72641e-05
5.81367e-05
5.89262e-05
5.96301e-05
6.02465e-05
6.07752e-05
6.12174e-05
6.15751e-05
6.18504e-05
6.20444e-05
6.21559e-05
6.21803e-05
6.21083e-05
6.19245e-05
6.16066e-05
6.11242e-05
6.04389e-05
5.95035e-05
5.82635e-05
5.66587e-05
5.46271e-05
5.21103e-05
4.90612e-05
4.54547e-05
4.13002e-05
3.66544e-05
3.16323e-05
2.6411e-05
2.12201e-05
1.6316e-05
1.19407e-05
8.28297e-06
5.84496e-06
3.35258e-06
1.62645e-06
7.85214e-07
3.8094e-07
1.51232e-07
3.91565e-08
6.70492e-09
4.56854e-10
2.11225e-12
3.44581e-05
3.90999e-05
4.14637e-05
4.32169e-05
4.46592e-05
4.58534e-05
4.68666e-05
4.78191e-05
4.87128e-05
4.95418e-05
5.02984e-05
5.09766e-05
5.15725e-05
5.20849e-05
5.25147e-05
5.28641e-05
5.31358e-05
5.33317e-05
5.3452e-05
5.34938e-05
5.34506e-05
5.33102e-05
5.30549e-05
5.266e-05
5.2094e-05
5.1318e-05
5.02868e-05
4.89501e-05
4.72557e-05
4.51537e-05
4.26024e-05
3.9577e-05
3.60796e-05
3.21502e-05
2.78776e-05
2.34042e-05
1.89223e-05
1.46564e-05
1.08267e-05
7.6069e-06
5.6052e-06
3.27006e-06
1.59259e-06
7.56855e-07
3.55422e-07
1.43195e-07
4.072e-08
6.80187e-09
4.1736e-10
2.6075e-12
2.90143e-05
3.23551e-05
3.40754e-05
3.53977e-05
3.65248e-05
3.7474e-05
3.83696e-05
3.92366e-05
4.00636e-05
4.08378e-05
4.15478e-05
4.21856e-05
4.27465e-05
4.32289e-05
4.36339e-05
4.39641e-05
4.42226e-05
4.44123e-05
4.45344e-05
4.45879e-05
4.45683e-05
4.44669e-05
4.427e-05
4.39586e-05
4.35076e-05
4.28865e-05
4.2059e-05
4.09849e-05
3.96222e-05
3.79297e-05
3.58724e-05
3.34272e-05
3.05907e-05
2.73888e-05
2.38851e-05
2.01875e-05
1.64491e-05
1.28602e-05
9.62586e-06
6.9166e-06
5.00604e-06
3.19308e-06
1.62046e-06
7.70329e-07
3.49318e-07
1.36063e-07
3.89951e-08
6.61115e-09
4.32453e-10
2.66412e-12
2.34046e-05
2.5626e-05
2.68113e-05
2.77777e-05
2.86304e-05
2.94159e-05
3.02047e-05
3.09824e-05
3.17314e-05
3.24353e-05
3.30814e-05
3.36613e-05
3.41704e-05
3.46076e-05
3.49742e-05
3.52734e-05
3.55086e-05
3.56833e-05
3.57998e-05
3.58581e-05
3.58558e-05
3.57869e-05
3.56416e-05
3.54055e-05
3.50601e-05
3.45817e-05
3.3943e-05
3.31132e-05
3.20598e-05
3.07507e-05
2.91578e-05
2.72612e-05
2.50545e-05
2.25522e-05
1.9796e-05
1.68614e-05
1.38592e-05
1.09341e-05
8.2559e-06
5.98087e-06
4.03981e-06
2.39836e-06
1.25961e-06
5.84974e-07
2.48881e-07
8.59848e-08
2.03816e-08
3.06871e-09
1.37373e-10
7.07585e-13
1.79497e-05
1.93029e-05
2.00843e-05
2.07778e-05
2.14244e-05
2.20891e-05
2.27717e-05
2.34512e-05
2.41074e-05
2.47237e-05
2.5288e-05
2.57927e-05
2.62341e-05
2.6612e-05
2.6928e-05
2.71857e-05
2.73888e-05
2.7541e-05
2.76448e-05
2.77015e-05
2.77099e-05
2.76662e-05
2.75637e-05
2.73922e-05
2.71383e-05
2.67849e-05
2.63121e-05
2.56975e-05
2.49171e-05
2.39474e-05
2.27671e-05
2.13603e-05
1.97199e-05
1.78526e-05
1.57836e-05
1.35612e-05
1.12586e-05
8.97168e-06
6.81615e-06
4.92936e-06
3.3388e-06
2.0201e-06
1.08495e-06
5.21379e-07
2.15053e-07
7.12712e-08
1.73151e-08
2.37176e-09
1.17066e-10
6.85047e-13
1.2988e-05
1.37431e-05
1.42473e-05
1.47409e-05
1.5251e-05
1.58032e-05
1.6376e-05
1.69468e-05
1.74966e-05
1.80107e-05
1.84789e-05
1.88954e-05
1.92578e-05
1.95666e-05
1.9824e-05
2.00335e-05
2.01986e-05
2.03231e-05
2.04095e-05
2.04594e-05
2.04726e-05
2.04469e-05
2.03778e-05
2.02587e-05
2.00801e-05
1.98304e-05
1.94958e-05
1.90605e-05
1.85082e-05
1.78222e-05
1.69877e-05
1.59929e-05
1.48317e-05
1.35062e-05
1.20302e-05
1.04328e-05
8.75995e-06
7.07189e-06
5.43778e-06
3.9539e-06
2.68387e-06
1.65386e-06
9.08112e-07
4.3976e-07
1.81418e-07
5.98087e-08
1.42952e-08
1.98043e-09
9.91297e-11
5.79961e-13
8.80006e-06
9.1926e-06
9.51979e-06
9.8762e-06
1.02817e-05
1.07252e-05
1.11847e-05
1.16401e-05
1.20758e-05
1.24802e-05
1.28458e-05
1.31688e-05
1.34481e-05
1.36848e-05
1.38814e-05
1.40408e-05
1.41665e-05
1.42616e-05
1.43284e-05
1.43684e-05
1.4382e-05
1.4368e-05
1.43238e-05
1.42448e-05
1.41251e-05
1.39569e-05
1.37311e-05
1.34375e-05
1.30651e-05
1.26032e-05
1.20419e-05
1.13734e-05
1.05931e-05
9.70121e-06
8.70459e-06
7.61878e-06
6.47044e-06
5.29659e-06
4.13784e-06
3.052e-06
2.09775e-06
1.31621e-06
7.37564e-07
3.61775e-07
1.50184e-07
4.96777e-08
1.18332e-08
1.6417e-09
8.23618e-11
4.82014e-13
5.54138e-06
5.74066e-06
5.95918e-06
6.22134e-06
6.53168e-06
6.87005e-06
7.21753e-06
7.55865e-06
7.88169e-06
8.17866e-06
8.44486e-06
8.67821e-06
8.87867e-06
9.04761e-06
9.18724e-06
9.30018e-06
9.38911e-06
9.45648e-06
9.50422e-06
9.53362e-06
9.54509e-06
9.53812e-06
9.51111e-06
9.46139e-06
9.38521e-06
9.27774e-06
9.13326e-06
8.94538e-06
8.70734e-06
8.4125e-06
8.05478e-06
7.62938e-06
7.13344e-06
6.56683e-06
5.93291e-06
5.23937e-06
4.49989e-06
3.73526e-06
2.96899e-06
2.23288e-06
1.56616e-06
1.00508e-06
5.76556e-07
2.8813e-07
1.21076e-07
4.03541e-08
9.63386e-09
1.33785e-09
6.71408e-11
3.92874e-13
3.21448e-06
3.32031e-06
3.46687e-06
3.65869e-06
3.88348e-06
4.12503e-06
4.36962e-06
4.60655e-06
4.8282e-06
5.02975e-06
5.20868e-06
5.36426e-06
5.497e-06
5.60825e-06
5.69979e-06
5.77362e-06
5.83167e-06
5.87569e-06
5.90707e-06
5.92675e-06
5.93511e-06
5.93194e-06
5.91636e-06
5.88683e-06
5.84115e-06
5.77645e-06
5.68938e-06
5.57616e-06
5.43285e-06
5.2556e-06
5.04092e-06
4.78609e-06
4.48955e-06
4.15126e-06
3.77308e-06
3.35897e-06
2.91543e-06
2.45293e-06
1.98401e-06
1.52485e-06
1.09694e-06
7.24203e-07
4.27889e-07
2.19524e-07
9.40662e-08
3.17487e-08
7.626e-09
1.06152e-09
5.32992e-11
3.11796e-13
1.69758e-06
1.75971e-06
1.85843e-06
1.98964e-06
2.14024e-06
2.29895e-06
2.45683e-06
2.60736e-06
2.74625e-06
2.87106e-06
2.98077e-06
3.0754e-06
3.15561e-06
3.22248e-06
3.2773e-06
3.32139e-06
3.35601e-06
3.38229e-06
3.40109e-06
3.41303e-06
3.41839e-06
3.41709e-06
3.40868e-06
3.39231e-06
3.36677e-06
3.33049e-06
3.28161e-06
3.21804e-06
3.13765e-06
3.03833e-06
2.91823e-06
2.77593e-06
2.61066e-06
2.42248e-06
2.21249e-06
1.98285e-06
1.73675e-06
1.47909e-06
1.21602e-06
9.55087e-07
7.06293e-07
4.82057e-07
2.95563e-07
1.57234e-07
6.94281e-08
2.3922e-08
5.81082e-09
8.1263e-10
4.08501e-11
2.38904e-13
8.01551e-07
8.40754e-07
9.04265e-07
9.86303e-07
1.07783e-06
1.17198e-06
1.2637e-06
1.34962e-06
1.42772e-06
1.49707e-06
1.55746e-06
1.60915e-06
1.65271e-06
1.68888e-06
1.71843e-06
1.74214e-06
1.76075e-06
1.77488e-06
1.78502e-06
1.79152e-06
1.79454e-06
1.79407e-06
1.78988e-06
1.78155e-06
1.76846e-06
1.74982e-06
1.72467e-06
1.69196e-06
1.6506e-06
1.59955e-06
1.5379e-06
1.46497e-06
1.38041e-06
1.2843e-06
1.17726e-06
1.06046e-06
9.3551e-07
8.0469e-07
6.70836e-07
5.37279e-07
4.0813e-07
2.88578e-07
1.848e-07
1.0313e-07
4.76277e-08
1.69823e-08
4.20941e-09
5.93876e-10
2.99244e-11
1.7497e-13
3.28847e-07
3.53118e-07
3.90486e-07
4.36114e-07
4.85209e-07
5.34284e-07
5.80986e-07
6.23913e-07
6.62365e-07
6.96125e-07
7.25273e-07
7.50068e-07
7.70869e-07
7.88079e-07
8.02108e-07
8.13353e-07
8.2217e-07
8.28867e-07
8.33685e-07
8.36795e-07
8.38279e-07
8.38131e-07
8.36256e-07
8.32461e-07
8.26463e-07
8.17896e-07
8.06327e-07
7.91275e-07
7.72246e-07
7.48768e-07
7.20433e-07
6.86946e-07
6.48172e-07
6.04172e-07
5.55241e-07
5.01951e-07
4.45086e-07
3.8567e-07
3.2496e-07
2.64373e-07
2.05505e-07
1.50212e-07
1.00695e-07
5.95396e-08
2.92953e-08
1.10496e-08
2.84356e-09
4.08228e-10
2.06692e-11
1.20853e-13
1.12157e-07
1.25794e-07
1.44664e-07
1.66253e-07
1.88533e-07
2.101e-07
2.30122e-07
2.48186e-07
2.64153e-07
2.78039e-07
2.89948e-07
3.00032e-07
3.08464e-07
3.15425e-07
3.21092e-07
3.2563e-07
3.29187e-07
3.31891e-07
3.3384e-07
3.35105e-07
3.35719e-07
3.35682e-07
3.34957e-07
3.33467e-07
3.31101e-07
3.27714e-07
3.23134e-07
3.17172e-07
3.09634e-07
3.00333e-07
2.89111e-07
2.75856e-07
2.60519e-07
2.43133e-07
2.2382e-07
2.02813e-07
1.8044e-07
1.57118e-07
1.33348e-07
1.09691e-07
8.67406e-08
6.51221e-08
4.54909e-08
2.85742e-08
1.5227e-08
6.26513e-09
1.72961e-09
2.57741e-10
1.3192e-11
7.71722e-14
2.96546e-08
3.59594e-08
4.35153e-08
5.16264e-08
5.9624e-08
6.71086e-08
7.38933e-08
7.99178e-08
8.51873e-08
8.9739e-08
9.36257e-08
9.69071e-08
9.96458e-08
1.01904e-07
1.0374e-07
1.05211e-07
1.06363e-07
1.0724e-07
1.07873e-07
1.08286e-07
1.08489e-07
1.08483e-07
1.08255e-07
1.07781e-07
1.07026e-07
1.05942e-07
1.04475e-07
1.02564e-07
1.00146e-07
9.71626e-08
9.35629e-08
8.93113e-08
8.43933e-08
7.88208e-08
7.26347e-08
6.59108e-08
5.87575e-08
5.13125e-08
4.37402e-08
3.62243e-08
2.89583e-08
2.21356e-08
1.59398e-08
1.05387e-08
6.09863e-09
2.81812e-09
8.81081e-10
1.42889e-10
7.52608e-12
4.41279e-14
5.43078e-09
7.46981e-09
9.61832e-09
1.17722e-08
1.37961e-08
1.56314e-08
1.72634e-08
1.86965e-08
1.99419e-08
2.10136e-08
2.19265e-08
2.2696e-08
2.33377e-08
2.38663e-08
2.42962e-08
2.46403e-08
2.49102e-08
2.51156e-08
2.52642e-08
2.53613e-08
2.54096e-08
2.54092e-08
2.53571e-08
2.52477e-08
2.50725e-08
2.48207e-08
2.44794e-08
2.40344e-08
2.34711e-08
2.27756e-08
2.19363e-08
2.09449e-08
1.9798e-08
1.84987e-08
1.70567e-08
1.54898e-08
1.38236e-08
1.20909e-08
1.03305e-08
8.58604e-09
6.90371e-09
5.32942e-09
3.90589e-09
2.66902e-09
1.64548e-09
8.54706e-10
3.20417e-10
6.25735e-11
3.60093e-12
2.13414e-14
5.66292e-10
9.2911e-10
1.27518e-09
1.59813e-09
1.88867e-09
2.1462e-09
2.37268e-09
2.57046e-09
2.74184e-09
2.88906e-09
3.01434e-09
3.11987e-09
3.20781e-09
3.28024e-09
3.33913e-09
3.38627e-09
3.42325e-09
3.45141e-09
3.47182e-09
3.48518e-09
3.49191e-09
3.49197e-09
3.48496e-09
3.47011e-09
3.44626e-09
3.41189e-09
3.36524e-09
3.30435e-09
3.22719e-09
3.13188e-09
3.01681e-09
2.88084e-09
2.72352e-09
2.54526e-09
2.34746e-09
2.13253e-09
1.90404e-09
1.6665e-09
1.4253e-09
1.18647e-09
9.56391e-10
7.41451e-10
5.47602e-10
3.79884e-10
2.41925e-10
1.3548e-10
6.03668e-11
1.61237e-11
1.22974e-12
7.72835e-15
2.21798e-11
4.39159e-11
6.30624e-11