/*--------------------------------*- C++ -*----------------------------------*\
| =========                 |                                                 |
| \\      /  F ield         | foam-extend: Open Source CFD                    |
|  \\    /   O peration     | Version:     4.0                                |
|   \\  /    A nd           | Web:         http://www.foam-extend.org         |
|    \\/     M anipulation  |                                                 |
\*---------------------------------------------------------------------------*/
FoamFile
{
    version     2.0;
    format      ascii;
    class       volScalarField;
    location    "0.0006";
    object      omega;
}
// * * * * * * * * * * * * * * * * * * * * * * * * * * * * * * * * * * * * * //

dimensions      [0 0 -1 0 0 0 0];

internalField   nonuniform List<scalar> 
28770
(
1.87595e+07
1.87595e+07
1.87595e+07
1.87595e+07
1.87595e+07
1.87595e+07
1.87595e+07
1.87595e+07
1.87595e+07
1.87595e+07
1.87595e+07
1.87595e+07
1.87595e+07
1.87595e+07
1.87595e+07
1.87595e+07
1.87595e+07
1.87595e+07
1.87595e+07
1.87595e+07
1.87595e+07
1.87595e+07
1.87595e+07
1.87595e+07
1.87595e+07
1.87595e+07
1.87595e+07
1.87595e+07
1.87595e+07
1.87595e+07
1.87595e+07
1.87595e+07
1.87595e+07
1.87595e+07
1.87595e+07
1.87595e+07
1.87595e+07
1.87595e+07
1.87595e+07
1.87595e+07
1.87595e+07
1.87595e+07
1.87595e+07
1.87595e+07
1.87595e+07
1.87595e+07
1.87595e+07
1.87595e+07
1.87595e+07
1.87595e+07
2.70014e+06
3.18574e+06
3.23008e+06
3.23475e+06
3.23538e+06
3.23549e+06
3.23552e+06
3.23553e+06
3.23554e+06
3.23554e+06
3.23554e+06
3.23554e+06
3.23554e+06
3.23554e+06
3.23554e+06
3.23554e+06
3.23554e+06
3.23554e+06
3.23554e+06
3.23554e+06
3.23554e+06
3.23554e+06
3.23554e+06
3.23554e+06
3.23554e+06
3.23554e+06
3.23554e+06
3.23555e+06
3.23555e+06
3.23555e+06
3.23555e+06
3.23555e+06
3.23555e+06
3.23555e+06
3.23555e+06
3.23556e+06
3.23556e+06
3.23556e+06
3.23557e+06
3.23557e+06
3.23559e+06
3.23561e+06
3.23568e+06
3.23585e+06
3.23644e+06
3.23892e+06
3.25306e+06
3.36211e+06
4.43128e+06
1.79872e+07
679434
1.01714e+06
1.08474e+06
1.09848e+06
1.10156e+06
1.10235e+06
1.10259e+06
1.10267e+06
1.1027e+06
1.10272e+06
1.10272e+06
1.10273e+06
1.10273e+06
1.10273e+06
1.10273e+06
1.10273e+06
1.10273e+06
1.10273e+06
1.10273e+06
1.10273e+06
1.10273e+06
1.10273e+06
1.10273e+06
1.10273e+06
1.10273e+06
1.10273e+06
1.10273e+06
1.10273e+06
1.10274e+06
1.10274e+06
1.10274e+06
1.10274e+06
1.10274e+06
1.10274e+06
1.10275e+06
1.10275e+06
1.10276e+06
1.10278e+06
1.10281e+06
1.10287e+06
1.10298e+06
1.10322e+06
1.10379e+06
1.10531e+06
1.1099e+06
1.12603e+06
1.19192e+06
1.50335e+06
3.24976e+06
1.79872e+07
228627
431016
496280
516085
522236
524271
525002
525289
525411
525468
525496
525511
525519
525523
525526
525528
525529
525530
525530
525531
525531
525532
525532
525532
525533
525534
525535
525536
525538
525540
525543
525548
525555
525565
525582
525607
525649
525719
525844
526074
526525
527463
529564
534663
548177
587435
712735
1.16002e+06
3.12319e+06
1.79872e+07
96129.1
214087
266529
287544
295795
299101
300483
301091
301374
301514
301586
301625
301648
301661
301669
301674
301677
301679
301680
301681
301682
301683
301684
301685
301686
301688
301690
301693
301697
301703
301712
301725
301744
301773
301819
301890
302006
302200
302535
303140
304279
306532
311241
321669
346212
407823
574733
1.08478e+06
3.10622e+06
1.79872e+07
47939.9
118620
157789
177010
186020
190217
192204
193173
193662
193919
194059
194138
194184
194212
194229
194240
194247
194252
194255
194257
194259
194261
194263
194264
194267
194270
194275
194281
194290
194303
194323
194351
194394
194458
194556
194710
194957
195361
196045
197237
199391
203435
211344
227494
262031
340009
530312
1.06585e+06
3.1032e+06
1.79872e+07
27129.1
71386.7
100033
116355
125129
129740
132163
133453
134154
134545
134769
134901
134980
135030
135061
135081
135094
135103
135109
135113
135117
135120
135123
135126
135131
135137
135145
135157
135174
135198
135235
135288
135366
135484
135664
135941
136377
137078
138230
140174
143546
149571
160682
181892
224032
312399
514674
1.06036e+06
3.10248e+06
1.79872e+07
16859.4
45950.9
66905.8
80266.9
88263.8
92901.1
95559.8
97086.9
97973.1
98495.4
98808.9
99000.7
99120.4
99196.3
99245.4
99277.6
99299.1
99313.7
99323.8
99331.2
99337
99342.1
99347.1
99352.9
99360.3
99370.2
99384.1
99403.8
99432.2
99473.3
99533
99620.3
99749
99940.3
100228
100665
101341
102404
104104
106881
111519
119449
133368
158548
205923
300436
508669
1.05852e+06
3.10227e+06
1.79872e+07
11262.2
31296.6
46793.1
57562.5
64583.4
68995.7
71718.2
73387.9
74414.6
75050.9
75449.7
75702.9
75865.9
75972.3
76042.5
76089.5
76121.3
76143.1
76158.5
76169.8
76178.7
76186.5
76194.2
76203.1
76214.4
76229.5
76250.7
76280.8
76323.9
76386.1
76476
76606.7
76797.7
77078.8
77496
78121.4
79070.1
80528.5
82804
86412.7
92239
101835
118009
146083
196872
294923
506148
1.05782e+06
3.10219e+06
1.79872e+07
7977.81
22349.4
34014.8
42681.3
48727.9
52786.8
55450.8
57179.6
58298
59023.2
59496
59806.8
60012.9
60150.8
60243.9
60307.3
60350.9
60381.3
60402.9
60418.9
60431.6
60442.7
60453.8
60466.5
60482.6
60504.2
60534.3
60577
60637.9
60725.2
60850.9
61032.3
61295
61677.5
62238
63065.8
64299.4
66157.3
68989.1
73363.4
80223.4
91175.2
109054
139140
192096
292183
504970
1.05751e+06
3.10216e+06
1.79872e+07
5946.89
16645
25601.2
32621.3
37791.7
41453.7
43985
45709.4
46875.6
47662.7
48194.6
48555.5
48801.4
48969.9
49086
49166.5
49222.8
49262.5
49291.1
49312.5
49329.5
49344.5
49359.5
49376.7
49398.4
49427.4
49467.8
49524.8
49605.8
49721.4
49886.7
50123.3
50463.1
50952.5
51660.8
52691.8
54203.1
56437
59771.4
64805.6
72510.1
84504.7
103610
135043
189346
290620
504276
1.05731e+06
3.10213e+06
1.79872e+07
4645.18
12891.8
19943.5
25669.7
30085.6
33356.4
35718.3
37395.6
38574.7
39399.2
39974.4
40375.9
40656.5
40853
40991.1
41088.5
41157.5
41206.8
41242.8
41269.9
41291.6
41310.9
41330.3
41352.4
41380.3
41417.5
41469.1
41541.6
41644.1
41789.6
41996.2
42289.8
42707.6
43303.3
44155.2
45378.5
47144.7
49711.8
53473.9
59044.1
67398.7
80147.1
100078
132353
187439
289370
503539
1.05696e+06
3.10205e+06
1.79872e+07
3790.52
10363.8
16053.1
20780
24570.3
27484.2
29666.4
31271.8
32438.8
33280.3
33884.4
34316.8
34625.9
34846.9
35004.8
35118
35199.2
35258
35301.3
35334.3
35361
35384.8
35408.8
35436.1
35470.5
35516.4
35579.5
35667.9
35792.4
35968
36215.7
36565.2
37058.2
37754.2
38738.5
40134.4
42122.1
44968.1
49073.3
55052.3
63873
77114.6
97525.3
130209
185575
287647
501923
1.05568e+06
3.1015e+06
1.79872e+07
3220.95
8633.56
13343.7
17310.4
20582
23183.9
25192.4
26714.9
27853.6
28697.1
29317.7
29772
30103.4
30344.6
30519.8
30647
30739.6
30807.4
30857.7
30896.5
30928.1
30956.4
30985.1
31017.8
31058.8
31113.3
31188
31292.2
31438.1
31642.7
31929.6
32331.3
32893.5
33679.9
34780.7
36324.1
38494.5
41560.8
45922.6
52188.6
61313.2
74810.7
95375.6
128015
183002
284215
497137
1.04964e+06
3.09629e+06
1.79872e+07
2837.98
7435.38
11435.6
14836.5
17681.1
20015.7
21865.2
23303
24404.7
25239.8
25867.5
26336
26684
26941.2
27130.8
27270.2
27372.7
27448.6
27505.6
27549.7
27586
27618.8
27652.1
27690
27737.5
27800.3
27886.3
28005.4
28171.4
28403
28725.7
29174.6
29797.9
30662.5
31861.5
33525.3
35838.8
39067.8
43603
50039.9
59353.3
72884.8
93289.6
125367
178969
277040
482976
1.02054e+06
3.04091e+06
1.79872e+07
2579.62
6599.53
10084
13064
15570
17672.1
19383.4
20740.9
21802.5
22622.9
23250.8
23727.5
24087
24356.4
24557.5
24707
24818.2
24901.2
24964.1
25013.2
25053.9
25090.9
25128.5
25171.4
25225
25295.7
25392
25524.9
25709.3
25965.1
26319.4
26809.2
27484.7
28414.5
29693.1
31451.3
33871.7
37212.6
41844.6
48303.9
54866.6
67789.3
85937.1
113907
159390
239370
397255
770900
2.00892e+06
1.20424e+07
2405.47
6013.58
9122.05
11787.1
14039.9
15941.9
17531.7
18816.2
19838
20640.6
21264.3
21744.7
22111.6
22390.1
22600
22757.8
22876.1
22965.2
23033.2
23086.8
23131.4
23172.2
23213.9
23261.4
23320.6
23398.5
23504.2
23649.4
23849.9
24126.7
24508.2
25032.4
25750.9
26733.2
28074.2
29903.9
32401.8
35820.3
40520.5
47036
53624.8
66319.7
84148.3
111387
155321
232050
383269
747064
2.01435e+06
1.24057e+07
2288.59
5601.71
8435.63
10866.1
12929.5
14670.6
16149.8
17371.9
18356.9
19141
19758.1
20239
20610.5
20895.2
21111.9
21276.1
21400.2
21494.3
21566.7
21624.1
21672.3
21716.5
21761.8
21813.5
21877.7
21962
22075.9
22231.7
22446.1
22740.7
23144.7
23697
24449.8
25473.1
26861.3
28742.9
31294.3
34761.9
39497.4
46018.8
52610.1
65068.7
82584.4
109186
151907
226490
373657
730708
1.98895e+06
1.23853e+07
2210.76
5311.98
7945.32
10201.5
12121.8
13744.1
15125.8
16292
17244.2
18010.5
18620
19099.6
19473.5
19762.4
19984
20153.1
20281.8
20380.1
20456.1
20516.8
20568
20615.2
20663.6
20718.9
20787.5
20877.3
20998.2
21163.2
21389
21698.2
22120.4
22695.1
23474.5
24528.6
25951.1
27868.6
30454.2
33948.6
38694.3
45194.5
51765.7
64001.2
81222.3
107252
148773
233721
388342
766473
2.12114e+06
1.69433e+07
2159.47
5108.48
7595.54
9722.84
11535.8
13071
14373.6
15487.8
16412.9
17163.5
17765.4
18242.8
18617.6
18909.2
19134.4
19307.2
19439.5
19541
19620
19683.3
19737.1
19786.8
19837.9
19896.3
19968.7
20063.1
20189.8
20362.2
20597.4
20918.3
21354.8
21946.6
22745.9
23822.4
25268.7
27209.4
29814.2
33318.5
38056.4
44518.5
51052.6
63079.9
80030.8
105578
146238
229277
379628
745923
2.07435e+06
1.69164e+07
2126.11
4966.25
7347.26
9380.04
11113.3
12583.6
13828.9
14896.8
15798
16535.2
17130.2
17605
17980
18273.3
18501
18676.5
18811.5
18915.6
18996.9
19062.4
19118.2
19170
19223.4
19284.3
19359.7
19457.9
19589.4
19767.7
20010.3
20340.3
20787.7
21392.2
22206
23298
24759.8
26713.9
29326.9
32829
37546.6
43958.3
50442
62269.7
78962.1
104082
144045
225741
374086
737896
2.06705e+06
1.69157e+07
2104.75
4867.92
7173.06
9137.56
10812.7
12235.3
13440.1
14470.3
15349.9
16076.8
16666.2
17138.6
17513.4
17807.7
18037.1
18214.6
18351.6
18457.6
18540.7
18607.9
18665.3
18718.8
18773.9
18836.9
18914.8
19016
19151.2
19334.1
19582.3
19919.1
20374.5
20988.2
21812
22914.3
24385.4
26346
28959.5
32451.4
37140.5
43493.7
49917.8
61541.8
77960.1
102624
141831
221899
367417
724001
2.02471e+06
1.67947e+07
2091.38
4801.51
7053.85
8970.49
10604.5
11993.3
13170
14172.7
15033.6
15752.7
16337.7
16808.3
17182.7
17477.6
17708.1
17887
18025.4
18132.8
18217.2
18285.7
18344.4
18399.1
18455.6
18520.1
18599.8
18703.3
18841.3
19027.5
19279.9
19621.5
20082.6
20702.6
21533.1
22641.7
24117.7
26080.3
28689.9
32167.5
36824.9
43116.9
49480.8
60886.8
76997.3
101109
139294
216776
357090
696952
2.07577e+06
1.19265e+07
2083.33
4758.96
6976.69
8861.75
10468.6
11834.7
12992.9
13977.4
14823.9
15537
16119.2
16588.5
16962.6
17257.9
17489.1
17668.9
17808.2
17916.6
18001.9
18071.2
18130.8
18186.4
18243.8
18309.5
18390.5
18495.5
18635.4
18824
19079.1
19424
19888.8
20512.8
21347.4
22459.6
23938
25900.1
28504.3
31967.6
36595.7
42832.2
49148.4
60327.3
76112
99580.3
136422
210042
341622
659106
1.98861e+06
1.18236e+07
2078.99
4734.95
6932.78
8799.61
10390.7
11743.8
12891.3
13865.4
14702.2
15411.2
15992.2
16460.8
16834.7
17130.3
17361.8
17542.1
17682.1
17791
17876.9
17946.7
18006.7
18062.9
18120.9
18187.2
18269
18375
18516
18705.9
18962.7
19309.5
19776.4
20402.7
21239.4
22353.5
23832.7
25793.7
28393.4
31846.2
36453
42649.5
48945.7
59915.3
75417.3
98278.8
133703
202793
320774
584545
1.29229e+06
5.51298e+06
2077.78
4727.38
6918.72
8779.56
10365.4
11714.3
12858.4
13829.3
14662
15369.4
15950.5
16418.9
16792.8
17088.4
17320.1
17500.6
17640.7
17749.8
17835.9
17905.9
17966.1
18022.4
18080.7
18147.2
18229.2
18335.5
18476.9
18667.3
18924.6
19272
19739.6
20366.6
21204
22318.6
23798
25758.6
28356.5
31805.3
36404.3
42586.1
48904.1
59718.6
75071.8
97596.6
132172
198805
307383
524752
967263
1.97646e+06
2079.57
4735.63
6933.39
8800.09
10391
11744
12891.5
13865.5
14702.4
15411.3
15992.3
16460.9
16834.8
17130.3
17361.9
17542.2
17682.2
17791.1
17876.9
17946.8
18006.8
18063
18121
18187.3
18269.1
18375.1
18516.1
18706
18962.8
19309.6
19776.5
20402.8
21239.5
22353.5
23832.7
25793.7
28393.4
31846.1
36452.9
42649.4
49030.3
59785.2
75189.8
97832.5
132710
201298
315896
563588
1.23042e+06
4.58374e+06
2084.59
4760.39
6977.93
8862.71
10469.3
11835.3
12993.3
13977.7
14824.2
15537.3
16119.5
16588.7
16962.8
17258.1
17489.2
17669
17808.4
17916.7
18002.1
18071.4
18130.9
18186.5
18244
18309.7
18390.7
18495.7
18635.6
18824.2
19079.3
19424.2
19889
20513
21347.5
22459.6
23937.9
25900
28504.2
31967.5
36595.5
42832
49302.3
60098.9
75731.6
98879.2
134990
208181
336706
644102
1.63997e+06
1.17253e+07
2093.48
4803.8
7055.81
8972
10605.7
11994.1
13170.6
14173.2
15034.1
15753.1
16338.1
16808.6
17183
17477.9
17708.3
17887.2
18025.6
18133
18217.5
18285.9
18344.6
18399.3
18455.9
18520.4
18600.2
18703.6
18841.6
19027.9
19280.2
19621.8
20082.9
20702.8
21533.2
22641.7
24117.7
26080.2
28689.8
32167.3
36824.6
43116.6
49690.3
60591.5
76538
100333
137878
215228
353773
689478
1.74928e+06
1.19135e+07
2107.88
4871.29
7175.9
9139.74
10814.3
12236.4
13440.9
14471.1
15350.6
16077.4
16666.7
17139.1
17513.8
17808.1
18037.4
18214.9
18351.9
18457.9
18541
18608.2
18665.7
18719.1
18774.3
18837.3
18915.2
19016.4
19151.6
19334.5
19582.7
19919.4
20374.8
20988.4
21812.2
22914.3
24385.3
26345.8
28959.3
32451.1
37140.2
43493.4
50172
61203.6
77471.5
101872
140606
220749
365152
717760
1.99057e+06
1.63168e+07
2130.49
4970.96
7351.21
9383.05
11115.5
12585.2
13830.1
14897.8
15798.9
16536
17130.9
17605.6
17980.5
18273.8
18501.4
18676.9
18811.9
18916
18997.3
19062.8
19118.6
19170.5
19223.9
19284.8
19360.3
19458.5
19590
19768.3
20010.8
20340.7
20788
21392.5
22206.1
23298
24759.6
26713.6
29326.6
32828.7
37546.3
43958
50738.1
61895.7
78453.7
103353
142957
224843
372634
735494
2.06329e+06
1.6915e+07
2165.35
5114.82
7600.84
9726.87
11538.7
13073
14375.2
15489.1
16414
17164.5
17766.2
18243.5
18618.2
18909.8
19134.9
19307.7
19440
19541.5
19620.5
19683.9
19737.6
19787.4
19838.5
19896.9
19969.3
20063.7
20190.5
20362.8
20598
20918.8
21355.2
21946.8
22746
23822.3
25268.4
27208.9
29813.7
33318
38056.1
44518.2
51396.8
62662.1
79483
104813
145114
228342
378090
743594
2.07253e+06
1.69167e+07
2218.35
5320.18
7952.15
10206.7
12125.5
13746.7
15127.8
16293.6
17245.5
18011.7
18621
19100.5
19474.2
19763.1
19984.7
20153.8
20282.4
20380.7
20456.7
20517.4
20568.7
20615.9
20664.3
20719.6
20788.3
20878.1
20999
21163.8
21389.6
21698.7
22120.8
22695.3
23474.5
24528.4
25950.7
27868.1
30453.6
33948
38693.8
45194.3
52171.3
63523.8
80606.2
106382
147437
232474
385663
758821
2.09686e+06
1.69199e+07
2298.04
5611.93
8444.1
10872.4
12934
14673.6
16152.1
17373.7
18358.4
19142.3
19759.2
20240
20611.4
20896
21112.6
21276.8
21400.9
21495
21567.4
21624.8
21673
21717.3
21762.6
21814.3
21878.5
21962.8
22076.6
22232.5
22446.7
22741.2
23145
23697.2
24449.8
25472.8
26860.8
28742.2
31293.6
34761.2
39496.9
46018.5
53095
64514
81879.2
108186
150320
223969
368300
716136
1.93335e+06
1.21639e+07
2416.8
6025.82
9132.08
11794.4
14044.8
15945.3
17534.2
18818.2
19839.6
20642
21265.6
21745.8
22112.6
22390.9
22600.9
22758.5
22876.8
22965.9
23033.9
23087.5
23132.2
23173
23214.7
23262.2
23321.4
23399.3
23505
23650.1
23850.5
24127.2
24508.5
25032.5
25750.7
26732.8
28073.6
29903.1
32400.9
35819.5
40519.9
47035.7
54214
65668.7
83338.8
110249
153553
229150
378439
739981
2.00777e+06
1.24058e+07
2592.72
6613.56
10095.3
13072
15575.1
17675.6
19386.1
20743.1
21804.3
22624.4
23252.1
23728.6
24088
24357.3
24558.3
24707.8
24818.9
24901.9
24964.8
25013.9
25054.7
25091.6
25129.3
25172.2
25225.8
25296.5
25392.8
25525.6
25709.9
25965.5
26319.7
26809.3
27484.5
28414
29692.4
31450.4
33870.8
37211.8
41844.1
48303.7
55615.4
67025.9
85014.9
112608
157260
235399
389169
755758
2.01699e+06
1.23779e+07
2852.55
7450.76
11447.6
14844.6
17686.1
20019.3
21867.9
23305.1
24406.5
25241.3
25868.7
26337.1
26685
26942.1
27131.6
27270.9
27373.5
27449.3
27506.3
27550.4
27586.8
27619.5
27652.8
27690.8
27738.2
27801.1
27887
28006
28172
28403.4
28726
29174.6
29797.7
30662
31860.8
33524.4
35837.8
39067
43602.5
50039.7
59353.2
72884.7
93289.5
125367
178969
277039
482975
1.02054e+06
3.04091e+06
1.79872e+07
3236.52
8649.59
13355.7
17318.1
20586.7
23187.3
25194.9
26716.8
27855.1
28698.4
29318.8
29773
30104.3
30345.4
30520.6
30647.8
30740.3
30808
30858.4
30897.1
30928.7
30957
30985.7
31018.4
31059.4
31113.9
31188.6
31292.7
31438.5
31643
31929.7
32331.3
32893.2
33679.4
34780
36323.2
38493.5
41559.9
45921.9
52188.3
61313
74810.6
95375.6
128015
183002
284215
497137
1.04964e+06
3.09629e+06
1.79872e+07
3806.44
10379.6
16064.2
20786.3
24574.3
27487
29668.4
31273.4
32440.1
33281.4
33885.3
34317.6
34626.7
34847.6
35005.5
35118.5
35199.8
35258.6
35301.9
35334.8
35361.5
35385.3
35409.3
35436.7
35471
35516.8
35580
35668.4
35792.7
35968.2
36215.8
36565.1
37057.9
37753.7
38737.8
40133.6
42121.2
44967.2
49072.5
55051.7
63872.6
77114.4
97525.3
130209
185576
287647
501923
1.05568e+06
3.1015e+06
1.79872e+07
4660.67
12906.4
19952.9
25674.9
30088.8
33358.6
35719.8
37396.8
38575.7
39400
39975.1
40376.5
40657.1
40853.6
40991.6
41088.9
41157.9
41207.2
41243.2
41270.2
41292
41311.3
41330.7
41352.8
41380.6
41417.9
41469.4
41541.8
41644.3
41789.7
41996.2
42289.7
42707.4
43302.9
44154.6
45377.8
47143.9
49710.9
53473.1
59043.4
67398.2
80146.8
100078
132353
187439
289370
503539
1.05696e+06
3.10205e+06
1.79872e+07
5961.12
16657.3
25608.3
32625.1
37793.9
41455.1
43985.9
45710
46876.2
47663.2
48195.1
48555.8
48801.7
48970.2
49086.3
49166.8
49223
49262.8
49291.3
49312.7
49329.7
49344.7
49359.7
49376.9
49398.5
49427.6
49468
49524.9
49605.9
49721.5
49886.6
50123.2
50462.9
50952.2
51660.4
52691.2
54202.4
56436.2
59770.7
64804.9
72509.6
84504.3
103609
135043
189347
290620
504276
1.05731e+06
3.10213e+06
1.79872e+07
7989.97
22358.5
34019.2
42683.6
48729
52787.4
55451.1
57179.8
58298.2
59023.3
59496.2
59807
60013
60150.9
60244
60307.4
60351
60381.4
60403
60419
60431.7
60442.8
60453.9
60466.6
60482.6
60504.2
60534.3
60577
60637.9
60725.2
60850.9
61032.2
61294.9
61677.3
62237.8
63065.4
64298.9
66156.8
68988.5
73362.8
80222.8
91174.8
109054
139140
192096
292183
504970
1.05751e+06
3.10216e+06
1.79872e+07
11271.6
31302
46795.1
57563.2
64583.5
68995.6
71718
73387.8
74414.4
75050.8
75449.6
75702.9
75865.9
75972.3
76042.5
76089.5
76121.3
76143.1
76158.5
76169.8
76178.7
76186.4
76194.2
76203.1
76214.3
76229.5
76250.7
76280.7
76323.9
76386
76476
76606.7
76797.7
77078.8
77495.9
78121.3
79069.9
80528.2
82803.6
86412.3
92238.6
101834
118008
146082
196872
294923
506148
1.05782e+06
3.10219e+06
1.79872e+07
16865.3
45950.9
66904.8
80266.1
88263.1
92900.5
95559.3
97086.5
97972.8
98495.2
98808.7
99000.5
99120.2
99196.2
99245.3
99277.5
99299
99313.6
99323.7
99331.1
99336.9
99342
99347
99352.8
99360.2
99370.1
99384
99403.7
99432.1
99473.2
99532.9
99620.3
99749
99940.3
100228
100665
101341
102403
104103
106881
111518
119449
133368
158548
205923
300436
508669
1.05852e+06
3.10227e+06
1.79872e+07
27131.1
71376.3
100029
116353
125127
129739
132163
133453
134154
134545
134769
134901
134980
135029
135060
135080
135094
135102
135109
135113
135116
135119
135122
135126
135130
135136
135145
135157
135174
135198
135235
135288
135366
135484
135664
135941
136377
137078
138230
140174
143546
149571
160682
181891
224032
312399
514674
1.06036e+06
3.10248e+06
1.79872e+07
47941.3
118617
157787
177009
186019
190216
192203
193172
193662
193918
194059
194138
194184
194212
194229
194240
194247
194252
194255
194257
194259
194261
194262
194264
194267
194270
194275
194281
194290
194303
194323
194351
194394
194458
194556
194710
194957
195361
196045
197237
199391
203435
211344
227494
262031
340009
530312
1.06585e+06
3.1032e+06
1.79872e+07
96129.9
214086
266528
287544
295795
299101
300482
301091
301374
301514
301586
301625
301647
301661
301668
301673
301677
301679
301680
301681
301682
301683
301684
301685
301686
301688
301690
301693
301697
301703
301712
301725
301744
301773
301819
301890
302006
302200
302535
303140
304279
306533
311241
321669
346212
407823
574733
1.08478e+06
3.10622e+06
1.79872e+07
228627
431015
496279
516085
522236
524271
525002
525289
525411
525468
525496
525510
525519
525523
525526
525528
525529
525530
525530
525531
525531
525531
525532
525532
525533
525534
525535
525536
525538
525540
525543
525548
525555
525565
525582
525607
525649
525719
525844
526074
526525
527463
529564
534663
548177
587435
712735
1.16002e+06
3.12319e+06
1.79872e+07
679434
1.01714e+06
1.08474e+06
1.09848e+06
1.10156e+06
1.10235e+06
1.10259e+06
1.10267e+06
1.1027e+06
1.10272e+06
1.10272e+06
1.10273e+06
1.10273e+06
1.10273e+06
1.10273e+06
1.10273e+06
1.10273e+06
1.10273e+06
1.10273e+06
1.10273e+06
1.10273e+06
1.10273e+06
1.10273e+06
1.10273e+06
1.10273e+06
1.10273e+06
1.10273e+06
1.10273e+06
1.10274e+06
1.10274e+06
1.10274e+06
1.10274e+06
1.10274e+06
1.10274e+06
1.10275e+06
1.10275e+06
1.10276e+06
1.10278e+06
1.10281e+06
1.10287e+06
1.10298e+06
1.10322e+06
1.10379e+06
1.10531e+06
1.1099e+06
1.12603e+06
1.19192e+06
1.50335e+06
3.24976e+06
1.79872e+07
2.70014e+06
3.18574e+06
3.23008e+06
3.23475e+06
3.23538e+06
3.23549e+06
3.23552e+06
3.23553e+06
3.23554e+06
3.23554e+06
3.23554e+06
3.23554e+06
3.23554e+06
3.23554e+06
3.23554e+06
3.23554e+06
3.23554e+06
3.23554e+06
3.23554e+06
3.23554e+06
3.23554e+06
3.23554e+06
3.23554e+06
3.23554e+06
3.23554e+06
3.23554e+06
3.23554e+06
3.23555e+06
3.23555e+06
3.23555e+06
3.23555e+06
3.23555e+06
3.23555e+06
3.23555e+06
3.23555e+06
3.23556e+06
3.23556e+06
3.23556e+06
3.23557e+06
3.23557e+06
3.23559e+06
3.23561e+06
3.23568e+06
3.23585e+06
3.23644e+06
3.23892e+06
3.25306e+06
3.36211e+06
4.43128e+06
1.79872e+07
1.87595e+07
1.87595e+07
1.87595e+07
1.87595e+07
1.87595e+07
1.87595e+07
1.87595e+07
1.87595e+07
1.87595e+07
1.87595e+07
1.87595e+07
1.87595e+07
1.87595e+07
1.87595e+07
1.87595e+07
1.87595e+07
1.87595e+07
1.87595e+07
1.87595e+07
1.87595e+07
1.87595e+07
1.87595e+07
1.87595e+07
1.87595e+07
1.87595e+07
1.87595e+07
1.87595e+07
1.87595e+07
1.87595e+07
1.87595e+07
1.87595e+07
1.87595e+07
1.87595e+07
1.87595e+07
1.87595e+07
1.87595e+07
1.87595e+07
1.87595e+07
1.87595e+07
1.87595e+07
1.87595e+07
1.87595e+07
1.87595e+07
1.87595e+07
1.87595e+07
1.87595e+07
1.87595e+07
1.87595e+07
1.87595e+07
1.87595e+07
6.64474e+07
6.76644e+07
6.74726e+07
6.79187e+07
6.70611e+07
6.76149e+07
6.7291e+07
6.76401e+07
6.7674e+07
6.76834e+07
6.76723e+07
6.76665e+07
6.76532e+07
6.6845e+07
6.76956e+07
6.76654e+07
6.76658e+07
6.7666e+07
6.76661e+07
6.7664e+07
3.10424e+06
3.29619e+06
3.27675e+06
3.26311e+06
3.25391e+06
3.26398e+06
3.26891e+06
3.2822e+06
3.3036e+06
3.32092e+06
3.31202e+06
3.31372e+06
3.31056e+06
3.28718e+06
3.29996e+06
3.32325e+06
3.32446e+06
3.32449e+06
3.32231e+06
3.25287e+06
1.15725e+07
1.19251e+07
1.19322e+07
1.16671e+07
1.22146e+07
1.17779e+07
1.19913e+07
1.19773e+07
1.19311e+07
1.19634e+07
1.19614e+07
1.19404e+07
1.18447e+07
1.1854e+07
1.19562e+07
1.19578e+07
1.19524e+07
1.19519e+07
1.19513e+07
1.19096e+07
1.87595e+07
1.87595e+07
1.87595e+07
1.87595e+07
1.87595e+07
1.87595e+07
1.87595e+07
1.87595e+07
1.87595e+07
1.87595e+07
1.87595e+07
1.87595e+07
1.87595e+07
1.87595e+07
1.87595e+07
1.87595e+07
1.87595e+07
1.87595e+07
1.87595e+07
1.87595e+07
1.87595e+07
1.87595e+07
1.87595e+07
1.87595e+07
1.87595e+07
1.87595e+07
1.87595e+07
1.87595e+07
1.87595e+07
1.87595e+07
1.87595e+07
1.87595e+07
1.87595e+07
1.87595e+07
1.87595e+07
1.87595e+07
1.87595e+07
1.87595e+07
1.87595e+07
1.87595e+07
1.87595e+07
1.87595e+07
1.87595e+07
1.87595e+07
1.87595e+07
1.87595e+07
1.87595e+07
1.87595e+07
1.87595e+07
1.87595e+07
1.87595e+07
1.87595e+07
1.87595e+07
1.87595e+07
1.87595e+07
1.87595e+07
1.87595e+07
1.87595e+07
1.87595e+07
1.87595e+07
1.87595e+07
1.87595e+07
1.87595e+07
1.87595e+07
1.87595e+07
1.87595e+07
1.87595e+07
1.87595e+07
1.87595e+07
1.87595e+07
1.87595e+07
1.87595e+07
1.87595e+07
1.87595e+07
1.87595e+07
1.87595e+07
1.87595e+07
1.87595e+07
1.87595e+07
1.87595e+07
1.87595e+07
1.87595e+07
1.87595e+07
1.87595e+07
1.87595e+07
1.87595e+07
1.87595e+07
1.87595e+07
1.87595e+07
1.87595e+07
1.87595e+07
1.87595e+07
1.87595e+07
1.87595e+07
1.87595e+07
1.87595e+07
1.87595e+07
1.87595e+07
1.87595e+07
1.87595e+07
1.79872e+07
4.43127e+06
3.36208e+06
3.25302e+06
3.23888e+06
3.2364e+06
3.23582e+06
3.23564e+06
3.23558e+06
3.23556e+06
3.23555e+06
3.23554e+06
3.23554e+06
3.23554e+06
3.23554e+06
3.23554e+06
3.23554e+06
3.23554e+06
3.23554e+06
3.23554e+06
3.23554e+06
3.23554e+06
3.23554e+06
3.23554e+06
3.23554e+06
3.23554e+06
3.23554e+06
3.23554e+06
3.23554e+06
3.23554e+06
3.23554e+06
3.23554e+06
3.23554e+06
3.23554e+06
3.23554e+06
3.23554e+06
3.23554e+06
3.23554e+06
3.23554e+06
3.23554e+06
3.23554e+06
3.23554e+06
3.23554e+06
3.23554e+06
3.23554e+06
3.23554e+06
3.23554e+06
3.23554e+06
3.23554e+06
3.23554e+06
3.23554e+06
3.23554e+06
3.23554e+06
3.23554e+06
3.23554e+06
3.23554e+06
3.23554e+06
3.23554e+06
3.23554e+06
3.23554e+06
3.23554e+06
3.23554e+06
3.23554e+06
3.23554e+06
3.23554e+06
3.23554e+06
3.23554e+06
3.23554e+06
3.23554e+06
3.23554e+06
3.23554e+06
3.23554e+06
3.23554e+06
3.23554e+06
3.23554e+06
3.23554e+06
3.23554e+06
3.23554e+06
3.23554e+06
3.23554e+06
3.23554e+06
3.23554e+06
3.23554e+06
3.23554e+06
3.23554e+06
3.23554e+06
3.23554e+06
3.23554e+06
3.23554e+06
3.23554e+06
3.23554e+06
3.23554e+06
3.23554e+06
3.23554e+06
3.23554e+06
3.23554e+06
3.23554e+06
3.23554e+06
3.23554e+06
3.23554e+06
1.79872e+07
3.24979e+06
1.50335e+06
1.1919e+06
1.12601e+06
1.10988e+06
1.10528e+06
1.10377e+06
1.1032e+06
1.10296e+06
1.10285e+06
1.10279e+06
1.10277e+06
1.10275e+06
1.10274e+06
1.10274e+06
1.10273e+06
1.10273e+06
1.10273e+06
1.10273e+06
1.10273e+06
1.10273e+06
1.10273e+06
1.10273e+06
1.10273e+06
1.10273e+06
1.10273e+06
1.10273e+06
1.10273e+06
1.10273e+06
1.10273e+06
1.10273e+06
1.10273e+06
1.10273e+06
1.10273e+06
1.10273e+06
1.10273e+06
1.10273e+06
1.10273e+06
1.10273e+06
1.10273e+06
1.10273e+06
1.10273e+06
1.10273e+06
1.10273e+06
1.10273e+06
1.10273e+06
1.10273e+06
1.10273e+06
1.10273e+06
1.10273e+06
1.10273e+06
1.10273e+06
1.10273e+06
1.10273e+06
1.10273e+06
1.10273e+06
1.10273e+06
1.10273e+06
1.10273e+06
1.10273e+06
1.10273e+06
1.10273e+06
1.10273e+06
1.10273e+06
1.10273e+06
1.10273e+06
1.10273e+06
1.10273e+06
1.10273e+06
1.10273e+06
1.10273e+06
1.10273e+06
1.10273e+06
1.10273e+06
1.10273e+06
1.10273e+06
1.10273e+06
1.10273e+06
1.10273e+06
1.10273e+06
1.10273e+06
1.10273e+06
1.10273e+06
1.10273e+06
1.10273e+06
1.10273e+06
1.10273e+06
1.10273e+06
1.10273e+06
1.10273e+06
1.10273e+06
1.10273e+06
1.10273e+06
1.10273e+06
1.10273e+06
1.10273e+06
1.10273e+06
1.10273e+06
1.10273e+06
1.79872e+07
3.12323e+06
1.16003e+06
712735
587426
548163
534646
529546
527446
526508
526059
525830
525707
525638
525598
525574
525559
525550
525544
525540
525537
525536
525534
525534
525533
525533
525532
525532
525532
525532
525532
525532
525531
525531
525531
525531
525531
525531
525531
525531
525531
525531
525531
525531
525531
525531
525531
525531
525531
525531
525531
525531
525530
525530
525530
525530
525530
525530
525530
525530
525530
525530
525530
525530
525530
525530
525530
525530
525530
525530
525530
525530
525530
525530
525530
525530
525530
525530
525530
525530
525530
525530
525530
525530
525530
525530
525530
525530
525530
525530
525530
525530
525530
525530
525530
525530
525530
525530
525531
525531
1.79872e+07
3.10627e+06
1.0848e+06
574745
407824
346206
321659
311229
306520
304267
303129
302526
302193
302001
301887
301818
301774
301747
301729
301717
301709
301703
301699
301696
301694
301692
301691
301689
301689
301688
301687
301687
301686
301686
301686
301685
301685
301685
301685
301685
301685
301685
301685
301684
301684
301684
301684
301684
301683
301683
301683
301683
301683
301682
301682
301682
301682
301682
301682
301682
301682
301682
301682
301682
301682
301682
301682
301682
301682
301682
301682
301682
301682
301682
301682
301682
301682
301682
301682
301682
301682
301682
301682
301682
301682
301682
301682
301682
301682
301682
301682
301682
301682
301682
301682
301682
301682
301682
301682
301683
1.79872e+07
3.10325e+06
1.06588e+06
530331
340020
262034
227492
211340
203430
199387
197235
196045
195365
194964
194721
194570
194474
194412
194371
194344
194325
194312
194302
194295
194290
194285
194282
194279
194276
194274
194272
194271
194270
194269
194268
194267
194267
194266
194266
194266
194266
194265
194265
194265
194264
194264
194264
194263
194263
194262
194262
194261
194261
194261
194261
194260
194260
194260
194260
194260
194260
194260
194260
194259
194259
194259
194259
194259
194259
194259
194259
194259
194259
194259
194259
194259
194259
194259
194259
194259
194259
194259
194259
194259
194259
194260
194260
194260
194260
194260
194260
194260
194260
194260
194260
194260
194260
194261
194261
194261
1.79872e+07
3.10253e+06
1.06039e+06
514699
312418
224044
181899
160688
149576
143554
140186
138248
137101
136406
135976
135704
135529
135414
135338
135286
135250
135224
135205
135191
135180
135170
135163
135156
135151
135147
135143
135140
135137
135135
135133
135132
135131
135130
135130
135129
135129
135128
135128
135127
135126
135126
135125
135124
135124
135123
135122
135121
135121
135120
135120
135119
135119
135119
135119
135119
135118
135118
135118
135118
135118
135118
135118
135118
135118
135118
135118
135118
135118
135118
135118
135118
135118
135118
135118
135118
135118
135118
135118
135118
135118
135118
135118
135118
135118
135118
135119
135119
135119
135119
135119
135119
135120
135120
135120
135120
1.79872e+07
3.10232e+06
1.05856e+06
508698
300461
205944
158566
133386
119470
111545
106915
104148
102458
101407
100741
100312
100032
99846.5
99721.2
99635
99574.4
99530.4
99497.6
99472.1
99451.7
99434.9
99420.8
99408.9
99398.8
99390.4
99383.3
99377.4
99372.6
99368.8
99365.7
99363.3
99361.4
99359.9
99358.6
99357.6
99356.7
99355.9
99355
99354.1
99353.2
99352.1
99351
99349.9
99348.7
99347.5
99346.4
99345.4
99344.5
99343.7
99343
99342.5
99342.1
99341.7
99341.5
99341.3
99341.1
99341
99341
99340.9
99340.9
99340.9
99340.9
99340.9
99340.9
99340.9
99340.9
99340.9
99340.9
99340.9
99340.9
99340.9
99340.9
99340.9
99340.9
99340.9
99340.9
99340.9
99340.9
99340.9
99340.9
99341
99341
99341
99341.1
99341.1
99341.2
99341.4
99341.5
99341.7
99341.9
99342.2
99342.5
99342.8
99343
99343.2
1.79872e+07
3.10225e+06
1.05786e+06
506181
294953
196901
146113