/*--------------------------------*- C++ -*----------------------------------*\
| =========                 |                                                 |
| \\      /  F ield         | foam-extend: Open Source CFD                    |
|  \\    /   O peration     | Version:     4.0                                |
|   \\  /    A nd           | Web:         http://www.foam-extend.org         |
|    \\/     M anipulation  |                                                 |
\*---------------------------------------------------------------------------*/
FoamFile
{
    version     2.0;
    format      ascii;
    class       surfaceScalarField;
    location    "0.0006";
    object      phi;
}
// * * * * * * * * * * * * * * * * * * * * * * * * * * * * * * * * * * * * * //

dimensions      [0 3 -1 0 0 0 0];

internalField   nonuniform List<scalar> 
57362
(
4.38202e-11
2.60196e-15
4.38123e-11
7.8456e-15
4.37991e-11
1.3209e-14
4.37803e-11
1.87739e-14
4.37557e-11
2.46249e-14
4.37248e-11
3.08505e-14
4.36873e-11
3.75445e-14
4.36425e-11
4.48072e-14
4.35897e-11
5.27466e-14
4.35283e-11
6.14799e-14
4.34571e-11
7.11349e-14
4.33752e-11
8.18512e-14
4.32815e-11
9.37823e-14
4.31744e-11
1.07097e-13
4.30524e-11
1.21979e-13
4.29137e-11
1.38634e-13
4.27564e-11
1.57283e-13
4.25782e-11
1.78173e-13
4.23766e-11
2.0157e-13
4.21488e-11
2.27765e-13
4.18918e-11
2.57073e-13
4.16019e-11
2.89832e-13
4.12755e-11
3.26406e-13
4.09083e-11
3.67175e-13
4.04957e-11
4.12548e-13
4.00327e-11
4.62928e-13
3.95139e-11
5.18758e-13
3.89334e-11
5.80419e-13
3.8285e-11
6.4838e-13
3.7562e-11
7.22906e-13
3.67575e-11
8.0449e-13
3.58643e-11
8.93115e-13
3.4875e-11
9.89317e-13
3.37823e-11
1.09254e-12
3.2579e-11
1.2034e-12
3.12582e-11
1.32049e-12
2.98139e-11
1.4445e-12
2.82407e-11
1.57292e-12
2.65345e-11
1.70634e-12
2.4693e-11
1.84121e-12
2.27156e-11
1.97759e-12
2.06041e-11
2.11132e-12
1.83627e-11
2.24149e-12
1.59987e-11
2.36389e-12
1.35222e-11
2.47668e-12
1.09461e-11
2.57604e-12
8.28653e-12
2.65976e-12
5.56171e-12
2.72489e-12
2.79222e-12
2.76963e-12
2.79235e-12
4.38208e-11
5.16529e-15
4.3813e-11
1.55748e-14
4.38e-11
2.62222e-14
4.37815e-11
3.72698e-14
4.37572e-11
4.88857e-14
4.37268e-11
6.12457e-14
4.36899e-11
7.45363e-14
4.36457e-11
8.89568e-14
4.35937e-11
1.04722e-13
4.35331e-11
1.22064e-13
4.3463e-11
1.41239e-13
4.33823e-11
1.62523e-13
4.32899e-11
1.86221e-13
4.31843e-11
2.1267e-13
4.3064e-11
2.42238e-13
4.29273e-11
2.7533e-13
4.27722e-11
3.12393e-13
4.25964e-11
3.53914e-13
4.23976e-11
4.00426e-13
4.21728e-11
4.52511e-13
4.19191e-11
5.108e-13
4.16329e-11
5.75968e-13
4.13105e-11
6.48747e-13
4.09478e-11
7.29898e-13
4.054e-11
8.20246e-13
4.00823e-11
9.206e-13
3.95692e-11
1.03186e-12
3.89948e-11
1.1548e-12
3.83528e-11
1.29037e-12
3.76365e-11
1.43911e-12
3.68389e-11
1.60207e-12
3.59528e-11
1.77917e-12
3.49706e-11
1.97162e-12
3.38848e-11
2.1782e-12
3.2688e-11
2.40038e-12
3.13732e-11
2.6351e-12
2.99339e-11
2.88414e-12
2.83646e-11
3.14205e-12
2.66607e-11
3.41061e-12
2.48198e-11
3.68202e-12
2.28407e-11
3.95715e-12
2.07251e-11
4.22687e-12
1.8477e-11
4.48998e-12
1.61036e-11
4.73741e-12
1.36148e-11
4.96577e-12
1.10239e-11
5.16705e-12
8.34717e-12
5.33683e-12
5.60327e-12
5.46897e-12
2.81336e-12
5.5598e-12
5.60592e-12
4.38353e-11
7.6527e-15
4.38278e-11
2.30751e-14
4.38152e-11
3.88504e-14
4.37972e-11
5.52191e-14
4.37737e-11
7.24306e-14
4.37442e-11
9.07459e-14
4.37082e-11
1.10441e-13
4.36654e-11
1.31813e-13
4.36149e-11
1.5518e-13
4.35561e-11
1.80888e-13
4.3488e-11
2.09314e-13
4.34096e-11
2.40873e-13
4.33198e-11
2.76017e-13
4.32173e-11
3.15247e-13
4.31004e-11
3.59111e-13
4.29675e-11
4.08215e-13
4.28166e-11
4.63223e-13
4.26457e-11
5.24864e-13
4.24521e-11
5.93937e-13
4.22333e-11
6.71311e-13
4.19862e-11
7.57933e-13
4.17073e-11
8.5482e-13
4.13929e-11
9.63071e-13
4.1039e-11
1.08384e-12
4.06408e-11
1.21837e-12
4.01935e-11
1.36789e-12
3.96915e-11
1.53378e-12
3.9129e-11
1.71722e-12
3.84997e-11
1.9197e-12
3.77966e-11
2.14203e-12
3.70128e-11
2.38589e-12
3.61406e-11
2.65117e-12
3.51724e-11
2.93987e-12
3.41002e-11
3.25004e-12
3.29163e-11
3.58429e-12
3.16132e-11
3.9377e-12
3.01839e-11
4.31359e-12
2.86221e-11
4.70317e-12
2.69228e-11
5.10994e-12
2.50828e-11
5.52146e-12
2.31002e-11
5.93973e-12
2.09761e-11
6.35035e-12
1.87142e-11
6.75186e-12
1.63211e-11
7.13003e-12
1.38071e-11
7.47976e-12
1.11855e-11
7.78844e-12
8.47309e-12
8.04923e-12
5.68959e-12
8.25239e-12
2.85725e-12
8.39218e-12
8.4632e-12
4.38502e-11
1.00271e-14
4.3843e-11
3.02349e-14
4.3831e-11
5.09055e-14
4.38138e-11
7.23548e-14
4.37913e-11
9.49099e-14
4.37632e-11
1.18914e-13
4.37289e-11
1.44729e-13
4.36879e-11
1.72744e-13
4.36397e-11
2.03379e-13
4.35835e-11
2.37088e-13
4.35185e-11
2.74368e-13
4.34436e-11
3.15764e-13
4.33577e-11
3.61873e-13
4.32596e-11
4.13354e-13
4.31478e-11
4.70933e-13
4.30206e-11
5.35409e-13
4.28761e-11
6.07661e-13
4.27123e-11
6.88656e-13
4.25268e-11
7.79454e-13
4.23168e-11
8.81211e-13
4.20796e-11
9.9519e-13
4.18116e-11
1.12275e-12
4.15093e-11
1.26536e-12
4.11685e-11
1.42457e-12
4.07848e-11
1.60208e-12
4.03531e-11
1.79953e-12
3.98681e-11
2.01883e-12
3.93236e-11
2.26156e-12
3.87135e-11
2.52986e-12
3.80307e-11
2.82479e-12
3.72679e-11
3.14884e-12
3.64171e-11
3.50176e-12
3.54705e-11
3.88676e-12
3.44195e-11
4.3008e-12
3.32559e-11
4.74846e-12
3.19713e-11
5.222e-12
3.05578e-11
5.72794e-12
2.90085e-11
6.25218e-12
2.73169e-11
6.80269e-12
2.5479e-11
7.35915e-12
2.34917e-11
7.92818e-12
2.13555e-11
8.48659e-12
1.90732e-11
9.03528e-12
1.66509e-11
9.55247e-12
1.4099e-11
1.00325e-11
1.1431e-11
1.04568e-11
8.66473e-12
1.08161e-11
5.82106e-12
1.10964e-11
2.92415e-12
1.12896e-11
1.13877e-11
4.38652e-11
1.22531e-14
4.38585e-11
3.69471e-14
4.38472e-11
6.22076e-14
4.38311e-11
8.84214e-14
4.38101e-11
1.15989e-13
4.37836e-11
1.4533e-13
4.37515e-11
1.76889e-13
4.37131e-11
2.11143e-13
4.36678e-11
2.48606e-13
4.36151e-11
2.89837e-13
4.3554e-11
3.35445e-13
4.34837e-11
3.861e-13
4.3403e-11
4.42539e-13
4.33108e-11
5.05572e-13
4.32056e-11
5.76095e-13
4.30859e-11
6.55094e-13
4.29499e-11
7.43659e-13
4.27955e-11
8.42988e-13
4.26206e-11
9.54397e-13
4.24224e-11
1.07933e-12
4.21982e-11
1.21935e-12
4.19448e-11
1.37618e-12
4.16585e-11
1.55165e-12
4.13353e-11
1.74773e-12
4.09708e-11
1.96656e-12
4.056e-11
2.21024e-12
4.00976e-11
2.48125e-12
3.95774e-11
2.78159e-12
3.89931e-11
3.11412e-12
3.83375e-11
3.48018e-12
3.76031e-11
3.88328e-12
3.67815e-11
4.32295e-12
3.58644e-11
4.80395e-12
3.48425e-11
5.322e-12
3.37069e-11
5.88421e-12
3.24482e-11
6.47969e-12
3.10573e-11
7.11889e-12
2.95262e-11
7.782e-12
2.78467e-11
8.482e-12
2.60138e-11
9.19073e-12
2.40224e-11
9.91916e-12
2.18718e-11
1.06359e-11
1.95634e-11
1.13432e-11
1.71028e-11
1.20119e-11
1.45001e-11
1.26349e-11
1.17692e-11
1.3187e-11
8.92914e-12
1.36559e-11
6.00271e-12
1.40225e-11
3.01665e-12
1.42755e-11
1.44042e-11
4.38936e-11
1.42978e-14
4.38874e-11
4.31131e-14
4.3877e-11
7.25906e-14
4.38622e-11
1.03183e-13
4.38429e-11
1.35358e-13
4.38186e-11
1.69607e-13
4.3789e-11
2.06451e-13
4.37537e-11
2.46449e-13
4.37121e-11
2.90202e-13
4.36636e-11
3.38366e-13
4.36074e-11
3.91658e-13
4.35426e-11
4.50864e-13
4.34683e-11
5.16851e-13
4.33833e-11
5.90575e-13
4.32863e-11
6.73093e-13
4.31758e-11
7.6557e-13
4.30501e-11
8.69297e-13
4.29074e-11
9.85696e-13
4.27454e-11
1.11633e-12
4.25618e-11
1.26293e-12
4.23538e-11
1.42737e-12
4.21182e-11
1.6117e-12
4.18517e-11
1.81815e-12
4.15503e-11
2.04909e-12
4.12097e-11
2.30715e-12
4.0825e-11
2.5949e-12
4.03909e-11
2.91542e-12
3.99012e-11
3.27119e-12
3.93496e-11
3.66589e-12
3.87284e-11
4.10115e-12
3.80303e-11
4.58177e-12
3.7246e-11
5.1069e-12
3.63671e-11
5.68363e-12
3.5383e-11
6.30557e-12
3.42843e-11
6.98432e-12
3.30599e-11
7.70337e-12
3.16994e-11
8.4815e-12
3.01932e-11
9.28739e-12
2.85306e-11
1.01474e-11
2.67054e-11
1.10154e-11
2.47095e-11
1.19181e-11
2.25411e-11
1.28044e-11
2.02e-11
1.36868e-11
1.76906e-11
1.45218e-11
1.50229e-11
1.53045e-11
1.22107e-11
1.59999e-11
9.27499e-12
1.6593e-11
6.24058e-12
1.70576e-11
3.13789e-12
1.73791e-11
1.75429e-11
4.39214e-11
1.61304e-14
4.39159e-11
4.86395e-14
4.39066e-11
8.18975e-14
4.38933e-11
1.16416e-13
4.3876e-11
1.52724e-13
4.38542e-11
1.91379e-13
4.38277e-11
2.32969e-13
4.3796e-11
2.78129e-13
4.37586e-11
3.2754e-13
4.37151e-11
3.81946e-13
4.36645e-11
4.42163e-13
4.36063e-11
5.09085e-13
4.35395e-11
5.83699e-13
4.34629e-11
6.67096e-13
4.33755e-11
7.60484e-13
4.32759e-11
8.65198e-13
4.31625e-11
9.82718e-13
4.30335e-11
1.11468e-12
4.28869e-11
1.2629e-12
4.27204e-11
1.42935e-12
4.25316e-11
1.61623e-12
4.23173e-11
1.82593e-12
4.20744e-11
2.06107e-12
4.1799e-11
2.32443e-12
4.1487e-11
2.61913e-12
4.11335e-11
2.94825e-12
4.07334e-11
3.31551e-12
4.02805e-11
3.72391e-12
3.97684e-11
4.17806e-12
3.91892e-11
4.67991e-12
3.85353e-11
5.23578e-12
3.7797e-11
5.84445e-12
3.69652e-11
6.5157e-12
3.60283e-11
7.24106e-12
3.49758e-11
8.03708e-12
3.37954e-11
8.88179e-12
3.24745e-11
9.80236e-12
3.10022e-11
1.07572e-11
2.93645e-11
1.17844e-11
2.75536e-11
1.28235e-11
2.55581e-11
1.39122e-11
2.33732e-11
1.49863e-11
2.09964e-11
1.60621e-11
1.843e-11
1.70857e-11
1.56834e-11
1.80499e-11
1.27708e-11
1.89107e-11
9.71491e-12
1.96479e-11
6.54386e-12
2.02276e-11
3.29265e-12
2.06297e-11
2.08349e-11
4.39483e-11
1.77229e-14
4.39435e-11
5.34423e-14
4.39354e-11
8.99865e-14
4.39239e-11
1.27919e-13
4.39088e-11
1.67824e-13
4.38899e-11
2.10314e-13
4.38668e-11
2.5604e-13
4.38392e-11
3.05701e-13
4.38067e-11
3.60051e-13
4.37687e-11
4.19915e-13
4.37247e-11
4.86192e-13
4.36739e-11
5.59877e-13
4.36155e-11
6.42066e-13
4.35487e-11
7.33972e-13
4.34722e-11
8.3694e-13
4.33849e-11
9.52465e-13
4.32854e-11
1.0822e-12
4.31721e-11
1.22799e-12
4.30431e-11
1.39186e-12
4.28964e-11
1.57607e-12
4.27295e-11
1.7831e-12
4.25397e-11
2.01567e-12
4.2324e-11
2.27679e-12
4.20787e-11
2.56966e-12
4.18e-11
2.89792e-12
4.1483e-11
3.26514e-12
4.11229e-11
3.67577e-12
4.07133e-11
4.13334e-12
4.02481e-11
4.64355e-12
3.9719e-11
5.20866e-12
3.91187e-11
5.83691e-12
3.84361e-11
6.52637e-12
3.76626e-11
7.29086e-12
3.67844e-11
8.11811e-12
3.57909e-11
9.0336e-12
3.46667e-11
1.00041e-11
3.3398e-11
1.1076e-11
3.19711e-11
1.21819e-11
3.0367e-11
1.3395e-11
2.85784e-11
1.46105e-11
2.65847e-11
1.59129e-11
2.4382e-11
1.7189e-11
2.19646e-11
1.84853e-11
1.93315e-11
1.97201e-11
1.6492e-11
2.08935e-11
1.34585e-11
2.19458e-11
1.0257e-11
2.28522e-11
6.9184e-12
2.35679e-11
3.48413e-12
2.40659e-11
2.43206e-11
4.39873e-11
1.90514e-14
4.39833e-11
5.74491e-14
4.39766e-11
9.67358e-14
4.3967e-11
1.37519e-13
4.39543e-11
1.80429e-13
4.39385e-11
2.26126e-13
4.39193e-11
2.75314e-13
4.38962e-11
3.28748e-13
4.3869e-11
3.87244e-13
4.38372e-11
4.51694e-13
4.38003e-11
5.23076e-13
4.37577e-11
6.02467e-13
4.37087e-11
6.91061e-13
4.36525e-11
7.90179e-13
4.35882e-11
9.01291e-13
4.35146e-11
1.02603e-12
4.34306e-11
1.16622e-12
4.33347e-11
1.32387e-12
4.32253e-11
1.50124e-12
4.31005e-11
1.70082e-12
4.29582e-11
1.92537e-12
4.27959e-11
2.17794e-12
4.26108e-11
2.46192e-12
4.23994e-11
2.78092e-12
4.21583e-11
3.13911e-12
4.18827e-11
3.54059e-12
4.15679e-11
3.99054e-12
4.12079e-11
4.49308e-12
4.07965e-11
5.05507e-12
4.03252e-11
5.67922e-12
3.97866e-11
6.37578e-12
3.91692e-11
7.14245e-12
3.84636e-11
7.99698e-12
3.7655e-11
8.92429e-12
3.67312e-11
9.95785e-12
3.56758e-11
1.10561e-11
3.4471e-11
1.22804e-11
3.31025e-11
1.3546e-11
3.15463e-11
1.49492e-11
2.97915e-11
1.63601e-11
2.78151e-11
1.78856e-11
2.5604e-11
1.93943e-11
2.31482e-11
2.0937e-11
2.04428e-11
2.24202e-11
1.74946e-11
2.38383e-11
1.43164e-11
2.51202e-11
1.09358e-11
2.62305e-11
7.38892e-12
2.71123e-11
3.72504e-12
2.77282e-11
2.80441e-11
4.40244e-11
2.00951e-14
4.40213e-11
6.05972e-14
4.4016e-11
1.0204e-13
4.40084e-11
1.45065e-13
4.39985e-11
1.90341e-13
4.39861e-11
2.38567e-13
4.39709e-11
2.90489e-13
4.39527e-11
3.46907e-13
4.39313e-11
4.08688e-13
4.39062e-11
4.76781e-13
4.3877e-11
5.52226e-13
4.38433e-11
6.36173e-13
4.38045e-11
7.29896e-13
4.37598e-11
8.34809e-13
4.37086e-11
9.52489e-13
4.365e-11
1.08469e-12
4.35828e-11
1.23338e-12
4.35059e-11
1.40073e-12
4.3418e-11
1.5892e-12
4.33173e-11
1.80149e-12
4.3202e-11
2.04064e-12
4.307e-11
2.30998e-12
4.29186e-11
2.61327e-12
4.27449e-11
2.95455e-12
4.25456e-11
3.33849e-12
4.23164e-11
3.76973e-12
4.20529e-11
4.25422e-12
4.1749e-11
4.79671e-12
4.13994e-11
5.40533e-12
4.09947e-11
6.08323e-12
4.05288e-11
6.84314e-12
3.9988e-11
7.68193e-12
3.93651e-11
8.6231e-12
3.86407e-11
9.64608e-12
3.78057e-11
1.07991e-11
3.68362e-11
1.20211e-11
3.57164e-11
1.34108e-11
3.4426e-11
1.48301e-11
3.29311e-11
1.6459e-11
3.12299e-11
1.80561e-11
2.92691e-11
1.9862e-11
2.70469e-11
2.16164e-11
2.45508e-11
2.34455e-11
2.17637e-11
2.52102e-11
1.86945e-11
2.69161e-11
1.53475e-11
2.84709e-11
1.17562e-11
2.98275e-11
7.95949e-12
3.09123e-11
4.01802e-12
3.16735e-11
3.20652e-11
4.4059e-11
2.08375e-14
4.40568e-11
6.28368e-14
4.4053e-11
1.05814e-13
4.40477e-11
1.50438e-13
4.40406e-11
1.97403e-13
4.40317e-11
2.47438e-13
4.40209e-11
3.0132e-13
4.40079e-11
3.59884e-13
4.39926e-11
4.24036e-13
4.39746e-11
4.94766e-13
4.39536e-11
5.73165e-13
4.39294e-11
6.60439e-13
4.39013e-11
7.57924e-13
4.3869e-11
8.67112e-13
4.38318e-11
9.89664e-13
4.37891e-11
1.12744e-12
4.37399e-11
1.28252e-12
4.36834e-11
1.45722e-12
4.36185e-11
1.65416e-12
4.35437e-11
1.87625e-12
4.34576e-11
2.12676e-12
4.33582e-11
2.40929e-12
4.32435e-11
2.72796e-12
4.31108e-11
3.08718e-12
4.29572e-11
3.49212e-12
4.27788e-11
3.94797e-12
4.25717e-11
4.46143e-12
4.23299e-11
5.03797e-12
4.20486e-11
5.68691e-12
4.17186e-11
6.41219e-12
4.13336e-11
7.22868e-12
4.08799e-11
8.1335e-12
4.03493e-11
9.15461e-12
3.97225e-11
1.02691e-11
3.89869e-11
1.15354e-11
3.81201e-11
1.28823e-11
3.70985e-11
1.44316e-11
3.59042e-11
1.60175e-11
3.44953e-11
1.78631e-11
3.28642e-11
1.96792e-11
3.09652e-11
2.17517e-11
2.87657e-11
2.38047e-11
2.62446e-11
2.5957e-11
2.33807e-11
2.80638e-11
2.0174e-11
3.0115e-11
1.66307e-11
3.20064e-11
1.27825e-11
3.36703e-11
8.67711e-12
3.50128e-11
4.38733e-12
3.59599e-11
3.64494e-11
4.41041e-11
2.12666e-14
4.41028e-11
6.41318e-14
4.41006e-11
1.07998e-13
4.40975e-11
1.53551e-13
4.40934e-11
2.015e-13
4.40883e-11
2.52595e-13
4.4082e-11
3.07631e-13
4.40744e-11
3.67465e-13
4.40654e-11
4.33031e-13
4.40548e-11
5.05346e-13
4.40424e-11
5.85536e-13
4.4028e-11
6.74844e-13
4.40113e-11
7.74655e-13
4.39919e-11
8.86513e-13
4.39694e-11
1.01214e-12
4.39433e-11
1.15349e-12
4.39131e-11
1.31271e-12
4.38781e-11
1.49225e-12
4.38374e-11
1.69486e-12
4.379e-11
1.92361e-12
4.37348e-11
2.18197e-12
4.36703e-11
2.47379e-12
4.35948e-11
2.80349e-12
4.35061e-11
3.17584e-12
4.34018e-11
3.59647e-12
4.32785e-11
4.07112e-12
4.31331e-11
4.60718e-12
4.29598e-11
5.2109e-12
4.2755e-11
5.89274e-12
4.25085e-11
6.65761e-12
4.22171e-11
7.52253e-12
4.1863e-11
8.48507e-12
4.14448e-11
9.5784e-12
4.09326e-11
1.0776e-11
4.03272e-11
1.21523e-11
3.95854e-11
1.36139e-11
3.8701e-11
1.53371e-11
3.76362e-11
1.70665e-11
3.63343e-11
1.91966e-11
3.48302e-11
2.11679e-11
3.29653e-11
2.36498e-11
3.07638e-11
2.6007e-11
2.8225e-11
2.85197e-11
2.52774e-11
3.10186e-11
2.19308e-11
3.34774e-11
1.81638e-11
3.57818e-11
1.40189e-11
3.78256e-11
9.54572e-12
3.94927e-11
4.83626e-12
4.0676e-11
4.12913e-11
4.41455e-11
2.13749e-14
4.41452e-11
6.44595e-14
4.41446e-11
1.08554e-13
4.41439e-11
1.54348e-13
4.41428e-11
2.02559e-13
4.41414e-11
2.53944e-13
4.41398e-11
3.09305e-13
4.41377e-11
3.69511e-13
4.41352e-11
4.35505e-13
4.41323e-11
5.08321e-13
4.41287e-11
5.89099e-13
4.41244e-11
6.79105e-13
4.41194e-11
7.7975e-13
4.41133e-11
8.92609e-13
4.41059e-11
1.01945e-12
4.40972e-11
1.16226e-12
4.40866e-11
1.32328e-12
4.40738e-11
1.50502e-12
4.40584e-11
1.71032e-12
4.40396e-11
1.94239e-12
4.40167e-11
2.20485e-12
4.39887e-11
2.50177e-12
4.39544e-11
2.8378e-12
4.39121e-11
3.21804e-12
4.38601e-11
3.64851e-12
4.37955e-11
4.13549e-12
4.37159e-11
4.68695e-12
4.36161e-11
5.31005e-12
4.34932e-11
6.01612e-12
4.33377e-11
6.81153e-12
4.31466e-11
7.71469e-12
4.29033e-11
8.7253e-12
4.26041e-11
9.87929e-12
4.22229e-11
1.11517e-11
4.17518e-11
1.2625e-11
4.11577e-11
1.42e-11
4.04137e-11
1.60801e-11
3.94987e-11
1.79719e-11
3.83349e-11
2.03513e-11
3.69512e-11
2.25421e-11
3.52598e-11
2.53204e-11
3.31673e-11
2.80773e-11
3.06434e-11
3.10233e-11
2.76364e-11
3.40058e-11
2.41289e-11
3.6969e-11
2.01076e-11
3.97879e-11
1.55988e-11
4.23234e-11
1.06644e-11
4.44182e-11
5.41636e-12
4.5918e-11
4.67025e-11
4.41826e-11
2.11599e-14
4.41833e-11
6.3812e-14
4.41844e-11
1.07467e-13
4.41859e-11
1.5281e-13
4.41879e-11
2.00554e-13
4.41904e-11
2.5145e-13
4.41934e-11
3.06299e-13
4.4197e-11
3.65966e-13
4.42011e-11
4.31389e-13
4.42058e-11
5.03603e-13
4.42112e-11
5.83747e-13
4.42172e-11
6.73089e-13
4.42239e-11
7.73045e-13
4.42313e-11
8.85199e-13
4.42394e-11
1.01133e-12
4.42482e-11
1.15345e-12
4.42577e-11
1.31383e-12
4.42677e-11
1.49502e-12
4.42781e-11
1.69992e-12
4.42886e-11
1.93182e-12
4.42991e-11
2.19444e-12
4.43088e-11
2.49201e-12
4.43173e-11
2.82935e-12
4.43234e-11
3.21185e-12
4.43263e-11
3.6458e-12
4.43236e-11
4.13799e-12
4.43142e-11
4.69683e-12
4.42932e-11
5.33047e-12
4.426e-11
6.05072e-12
4.42039e-11
6.86602e-12
4.41272e-11
7.79491e-12
4.4007e-11
8.84148e-12
4.3854e-11
1.00406e-11
4.36207e-11
1.13758e-11
4.33365e-11
1.29277e-11
4.29113e-11
1.46054e-11
4.23962e-11
1.66326e-11
4.16741e-11
1.8658e-11
4.06962e-11
2.13929e-11
3.96519e-11
2.35425e-11
3.7979e-11
2.70591e-11
3.5836e-11
3.02306e-11
3.33841e-11
3.35151e-11
3.03415e-11
3.70669e-11
2.67113e-11
4.06254e-11
2.24133e-11
4.41043e-11
1.74932e-11
4.72616e-11
1.20156e-11
4.99083e-11
6.1214e-12
5.18228e-11
5.28326e-11
4.42284e-11
2.06237e-14
4.423e-11
6.21959e-14
4.42327e-11
1.04748e-13
4.42366e-11
1.48951e-13
4.42416e-11
1.95503e-13
4.42479e-11
2.45137e-13
4.42556e-11
2.98639e-13
4.42647e-11
3.56857e-13
4.42754e-11
4.20713e-13
4.42878e-11
4.91222e-13
4.4302e-11
5.69507e-13
4.43183e-11
6.56817e-13
4.43368e-11
7.54552e-13
4.43577e-11
8.64278e-13
4.43813e-11
9.87764e-13
4.44077e-11
1.12701e-12
4.44373e-11
1.28426e-12
4.44702e-11
1.4621e-12
4.45067e-11
1.66343e-12
4.45469e-11
1.89155e-12
4.45911e-11
2.15026e-12
4.46393e-11
2.44384e-12
4.46914e-11
2.77723e-12
4.47472e-11
3.15601e-12
4.48064e-11
3.58666e-12
4.48677e-11
4.07642e-12
4.49308e-11
4.63395e-12
4.49921e-11
5.26838e-12
4.50518e-11
5.99173e-12
4.51013e-11
6.81471e-12
4.51423e-11
7.75547e-12
4.51566e-11
8.82326e-12
4.51494e-11
1.00507e-11
4.50857e-11
1.14322e-11
4.49735e-11
1.30439e-11
4.47566e-11
1.48107e-11
4.44258e-11
1.69659e-11
4.39336e-11
1.91359e-11
4.3115e-11
2.21999e-11
4.21969e-11
2.44595e-11
4.10173e-11
1.55157e-11
1.26815e-11
3.92436e-11
1.45017e-11
1.74526e-11
3.68656e-11
1.64577e-11
1.93972e-11
3.38136e-11
1.86218e-11
2.14591e-11
3.00233e-11
2.08606e-11
2.35223e-11
2.5429e-11
2.31278e-11
2.55367e-11
2.00088e-11
2.5307e-11
2.7348e-11
1.383e-11
2.72526e-11
2.88136e-11
7.07295e-12
2.87908e-11
2.97739e-11
2.97783e-11
3.01145e-11
4.42672e-11
1.97735e-14
4.42697e-11
5.96329e-14
4.42741e-11
1.00435e-13
4.42802e-11
1.42824e-13
4.42882e-11
1.87472e-13
4.42983e-11
2.35086e-13
4.43105e-11
2.86423e-13
4.43251e-11
3.42299e-13
4.43422e-11
4.03607e-13
4.43621e-11
4.71326e-13
4.4385e-11
5.46544e-13
4.44114e-11
6.30472e-13
4.44415e-11
7.24468e-13
4.44757e-11
8.30058e-13
4.45145e-11
9.48967e-13
4.45583e-11
1.08314e-12
4.46078e-11
1.23481e-12
4.46634e-11
1.40647e-12
4.47258e-11
1.60102e-12
4.47957e-11
1.82173e-12
4.48736e-11
2.07235e-12
4.49603e-11
2.35719e-12
4.50564e-11
2.68119e-12
4.51623e-11
3.05003e-12
4.52789e-11
3.47027e-12
4.54056e-11
3.94945e-12
4.55438e-11
4.49629e-12
4.56906e-11
5.12089e-12
4.5849e-11
5.83492e-12
4.60098e-11
6.65194e-12
4.61818e-11
7.58762e-12
4.63397e-11
8.66022e-12
4.65098e-11
9.89071e-12
4.66256e-11
1.13037e-11
4.67666e-11
1.29267e-11
4.67533e-11
1.47941e-11
4.68368e-11
1.69366e-11
4.64896e-11
1.94128e-11
4.65878e-11
2.22272e-11
2.33102e-11
2.55443e-11
2.20246e-11
-1.30011e-11
1.35843e-11
2.30267e-11
-2.16077e-11
2.11887e-11
1.48984e-11
-2.09349e-11
2.04001e-11
1.70098e-11
-1.99027e-11
1.92217e-11
1.934e-11
-1.84951e-11
1.7598e-11
2.1802e-11
-1.66091e-11
1.54601e-11
2.43187e-11
-1.41904e-11
1.27885e-11
2.67393e-11
-1.12551e-11
9.60549e-12
2.89209e-11
-7.83671e-12
5.97396e-12
3.06644e-11
-4.02762e-12
2.02887e-12
3.17844e-11
4.43052e-11
1.86214e-14
4.43087e-11
5.61593e-14
4.43146e-11
9.45871e-14
4.43229e-11
1.34514e-13
4.43338e-11
1.76575e-13
4.43474e-11
2.21438e-13
4.4364e-11
2.6982e-13
4.43838e-11
3.22494e-13
4.44071e-11
3.80304e-13
4.44343e-11
4.44183e-13
4.44657e-11
5.15162e-13
4.45018e-11
5.94395e-13
4.45431e-11
6.83177e-13
4.45902e-11
7.82964e-13
4.46437e-11
8.95407e-13
4.47045e-11
1.02238e-12
4.47733e-11
1.16601e-12
4.48511e-11
1.32873e-12
4.49388e-11
1.51331e-12
4.50375e-11
1.72296e-12
4.51486e-11
1.96133e-12
4.52731e-11
2.23264e-12
4.54126e-11
2.54175e-12
4.55682e-11
2.89433e-12
4.57418e-11
3.29683e-12
4.59339e-11
3.75699e-12
4.61472e-11
4.28338e-12
4.63804e-11
4.88683e-12
4.66377e-11
5.57851e-12
4.69134e-11
6.37427e-12
4.72154e-11
7.28772e-12
4.75272e-11
8.34404e-12
4.78661e-11
9.55609e-12
4.8191e-11
1.097e-11
4.85441e-11
1.2582e-11
4.88229e-11
1.44979e-11
4.91514e-11
1.66258e-11
4.92417e-11
1.92864e-11
4.95482e-11
2.19652e-11
2.54613e-11
2.59233e-11
2.36217e-11
-1.36985e-11
1.40373e-11
2.53034e-11
-2.34931e-11
2.31913e-11
-1.5583e-11
1.58152e-11
-2.30252e-11
2.26035e-11
-1.78346e-11
1.82276e-11
-2.21928e-11
2.15889e-11
-2.0329e-11
2.09299e-11
-2.0914e-11
2.00464e-11
-2.29935e-11
2.38747e-11
-1.90706e-11
1.78504e-11
-2.57206e-11
2.69631e-11
-1.64721e-11
1.49436e-11
-2.84174e-11
2.99563e-11
-1.32322e-11
1.1359e-11
-3.08576e-11
3.27311e-11
-9.31569e-12
7.13034e-12
-3.28002e-11
3.49832e-11
-4.82356e-12
2.43389e-12
-3.40168e-11
3.64078e-11
4.4342e-11
1.71842e-14
4.43463e-11
5.18255e-14
4.43536e-11
8.72902e-14
4.4364e-11
1.24142e-13
4.43776e-11
1.62969e-13
4.43946e-11
2.0439e-13
4.44154e-11
2.49068e-13
4.44402e-11
2.97722e-13
4.44693e-11
3.51136e-13
4.45033e-11
4.10175e-13
4.45427e-11
4.758e-13
4.4588e-11
5.49087e-13
4.464e-11
6.31242e-13
4.46993e-11
7.2363e-13
4.47669e-11
8.27796e-13
4.48438e-11
9.45497e-13
4.49311e-11
1.07874e-12
4.503e-11
1.22981e-12
4.5142e-11
1.40136e-12
4.52685e-11
1.5964e-12
4.54115e-11
1.81842e-12
4.55726e-11
2.07148e-12
4.57542e-11
2.36024e-12
4.59583e-11
2.6902e-12
4.61877e-11
3.06761e-12
4.64444e-11
3.50013e-12
4.67322e-11
3.99607e-12
4.70518e-11
4.56656e-12
4.74096e-11
5.22218e-12
4.78018e-11
5.98032e-12
4.82405e-11
6.85274e-12
4.871e-11
7.8698e-12
4.92366e-11
9.03836e-12
4.97757e-11
1.04196e-11
5.03851e-11
1.19924e-11
5.09579e-11
1.38998e-11
5.16102e-11
1.60142e-11
5.21308e-11
1.87146e-11
5.26707e-11
2.14997e-11
2.75352e-11
2.54843e-11
2.54857e-11
-1.40333e-11
1.41095e-11
2.7566e-11
-2.56358e-11
2.54925e-11
-1.62426e-11
1.6354e-11
-2.54542e-11
2.5191e-11
-1.87974e-11
1.90661e-11
-2.49065e-11
2.44492e-11
-2.16994e-11
2.21888e-11
-2.38797e-11
2.3119e-11
-2.49032e-11
2.57206e-11
-2.22711e-11
2.09178e-11
-2.81872e-11
2.96244e-11
-1.93532e-11
1.77347e-11
-3.16442e-11
3.33048e-11
-1.5839e-11
1.37182e-11
-3.48423e-11
3.69789e-11
-1.13341e-11
8.72875e-12
-3.7443e-11
4.00531e-11
-5.93166e-12
3.00128e-12
-3.90796e-11
4.20133e-11
4.43754e-11
1.54832e-14
4.43806e-11
4.6696e-14
4.43892e-11
7.86525e-14
4.44015e-11
1.11862e-13
4.44176e-11
1.46855e-13
4.44378e-11
1.84193e-13
4.44624e-11
2.24474e-13
4.44918e-11
2.68349e-13
4.45264e-11
3.1653e-13
4.45668e-11
3.69799e-13
4.46135e-11
4.29031e-13
4.46674e-11
4.95203e-13
4.47293e-11
5.69413e-13
4.48e-11
6.52906e-13
4.48807e-11
7.47093e-13
4.49726e-11
8.53582e-13
4.50772e-11
9.74213e-13
4.51959e-11
1.1111e-12
4.53306e-11
1.26666e-12
4.54833e-11
1.4437e-12
4.56563e-11
1.64546e-12
4.58521e-11
1.87572e-12
4.60735e-11
2.13883e-12
4.63237e-11
2.44e-12
4.66063e-11
2.78508e-12
4.69248e-11
3.18146e-12
4.72842e-11
3.63695e-12
4.76875e-11
4.16258e-12
4.81424e-11
4.76818e-12
4.86493e-11
5.47174e-12
4.92206e-11
6.28351e-12
4.985e-11
7.23653e-12
5.05587e-11
8.33402e-12
5.13251e-11
9.64537e-12
5.21856e-11
1.11407e-11
5.30869e-11
1.29833e-11
5.40888e-11
1.50297e-11
5.50834e-11
1.76913e-11
5.61308e-11
2.0487e-11
2.96061e-11
2.44546e-11
2.75025e-11
-1.39548e-11
1.37771e-11
2.98433e-11
-2.8008e-11
2.80631e-11
-1.65168e-11
1.64479e-11
-2.82124e-11
2.81683e-11
-1.93701e-11
1.94345e-11
-2.80694e-11
2.78616e-11
-2.27258e-11
2.29805e-11
-2.74131e-11
2.70299e-11
-2.66865e-11
2.71509e-11
-1.3448e-11
-1.61472e-11
1.28987e-11
1.63457e-11
-1.17161e-11
-1.8754e-11
1.11983e-11
1.90359e-11
-9.54228e-12
-2.09784e-11
8.85976e-12
2.1498e-11
-6.61345e-12
-2.27695e-11
5.74864e-12
2.35311e-11
-2.98835e-12
2.47437e-11
-2.37973e-11
1.99984e-12
4.44052e-11
1.35439e-14
4.4411e-11
4.08478e-14
4.44209e-11
6.88035e-14
4.44349e-11
9.78578e-14
4.44532e-11
1.28476e-13
4.44763e-11
1.6115e-13
4.45044e-11
1.96406e-13
4.45379e-11
2.34815e-13
4.45774e-11
2.77002e-13
4.46236e-11
3.23658e-13
4.46771e-11
3.75551e-13
4.47387e-11
4.33544e-13
4.48095e-11
4.98606e-13
4.48906e-11
5.71836e-13
4.49832e-11
6.54486e-13
4.50888e-11
7.47981e-13
4.52091e-11
8.53956e-13
4.53459e-11
9.74292e-13
4.55014e-11
1.11115e-12
4.56781e-11
1.26705e-12
4.58787e-11
1.44489e-12
4.61063e-11
1.64809e-12
4.63647e-11
1.88057e-12
4.66576e-11
2.14708e-12
4.69899e-11
2.45295e-12
4.73662e-11
2.80501e-12
4.77932e-11
3.21039e-12
4.82758e-11
3.6795e-12
4.88238e-11
4.22136e-12
4.94408e-11
4.85331e-12
5.01423e-11
5.5848e-12
5.09272e-11
6.44812e-12
5.18208e-11
7.44678e-12
5.28106e-11
8.64767e-12
5.39363e-11
1.00281e-11
5.51662e-11
1.17374e-11
5.65483e-11
1.36716e-11
5.8039e-11
1.6172e-11
5.96363e-11
1.89269e-11
3.17107e-11
2.26882e-11
2.96496e-11
-1.34236e-11
1.29842e-11
3.21865e-11
-3.05721e-11
3.08712e-11
-1.63289e-11
1.60205e-11
-3.12752e-11
3.15049e-11
-1.94244e-11
1.92141e-11
-3.17055e-11
3.17658e-11
-2.31455e-11
2.31227e-11
-3.16736e-11
3.13957e-11
-2.75189e-11
2.78464e-11
-1.62671e-11
-1.70892e-11
1.57491e-11
1.72934e-11
-1.45745e-11
-2.02782e-11
1.40446e-11
2.06666e-11
-1.22166e-11
-2.34986e-11
1.14592e-11
2.41879e-11
-8.72e-12
-2.63291e-11
7.64863e-12
2.73643e-11
-4.02217e-12
2.94195e-11
-2.81192e-11
2.70789e-12
4.4432e-11
1.13958e-14
4.44385e-11
3.43695e-14
4.44494e-11
5.78926e-14
4.44649e-11
8.23418e-14
4.44853e-11
1.08109e-13
4.45108e-11
1.3561e-13
4.45419e-11
1.65289e-13
4.45791e-11
1.97628e-13
4.4623e-11
2.33154e-13
4.46742e-11
2.72452e-13
4.47336e-11
3.16173e-13
4.48021e-11
3.65047e-13
4.48808e-11
4.19896e-13
4.4971e-11
4.81654e-13
4.50741e-11
5.51384e-13
4.51918e-11
6.303e-13
4.5326e-11
7.19798e-13
4.54788e-11
8.21483e-13
4.56528e-11
9.37211e-13
4.58507e-11
1.06914e-12
4.60759e-11
1.21976e-12
4.63319e-11
1.39203e-12
4.66232e-11
1.58935e-12
4.69544e-11
1.81585e-12
4.73314e-11
2.07616e-12
4.77599e-11
2.37632e-12
4.82481e-11
2.72256e-12
4.88029e-11
3.1242e-12
4.94358e-11
3.58918e-12
5.01546e-11
4.13329e-12
5.09762e-11
4.76492e-12
5.19077e-11
5.51385e-12
5.29745e-11
6.38356e-12
5.41809e-11
7.43577e-12
5.55629e-11
8.65282e-12
5.71206e-11
1.01696e-11
5.88962e-11
1.19078e-11
6.08913e-11
1.41604e-11
6.31212e-11
1.67161e-11
3.37789e-11
2.01617e-11
3.18428e-11
-1.23968e-11
1.16904e-11
3.45099e-11
-3.32484e-11
3.38423e-11
-1.5596e-11
1.49909e-11
-3.45679e-11
3.51572e-11
-1.88506e-11
1.82739e-11
-3.57623e-11
3.62468e-11
-2.29063e-11
2.24463e-11
-3.66451e-11
3.68489e-11
-2.79343e-11
2.77575e-11
-1.95051e-11
-1.77716e-11
1.91231e-11
1.78595e-11
-1.83186e-11
-2.1853e-11
1.78681e-11
2.21985e-11
-1.6131e-11
-2.64556e-11
1.5323e-11
2.72332e-11
-1.20692e-11
-3.0958e-11
1.06985e-11
3.2323e-11
-5.77437e-12
3.59523e-11
-3.40871e-11
3.90818e-12
4.44542e-11
9.07157e-15
4.44612e-11
2.73599e-14
4.4473e-11
4.60862e-14
4.44898e-11
6.55509e-14
4.45118e-11
8.60668e-14
4.45395e-11
1.07965e-13
4.45732e-11
1.316e-13
4.46135e-11
1.57357e-13
4.4661e-11
1.85657e-13
4.47165e-11
2.16968e-13
4.47808e-11
2.5181e-13
4.48551e-11
2.90768e-13
4.49405e-11
3.345e-13
4.50384e-11
3.83755e-13
4.51504e-11
4.39387e-13
4.52784e-11
5.02373e-13
4.54243e-11
5.73834e-13
4.55908e-11
6.55067e-13
4.57804e-11
7.47568e-13
4.59965e-11
8.53085e-13
4.62427e-11
9.73643e-13
4.65231e-11
1.11164e-12
4.68426e-11
1.26985e-12
4.72068e-11
1.45165e-12
4.76223e-11
1.66084e-12
4.80961e-11
1.9024e-12
4.86376e-11
2.18148e-12
4.92556e-11
2.50585e-12
4.99635e-11
2.88215e-12
5.07722e-11
3.32363e-12
5.17014e-11
3.83762e-12
5.27641e-11
4.44899e-12
5.39894e-11
5.16231e-12
5.53926e-11
6.02797e-12
5.70151e-11
7.03794e-12
5.8878e-11
8.29799e-12
6.1032e-11
9.76645e-12
6.35178e-11
1.1661e-11
6.63733e-11
1.38778e-11
3.57061e-11
1.68281e-11
3.39816e-11
-1.08442e-11
9.86707e-12
3.67023e-11
-3.59137e-11
3.68465e-11
-1.42295e-11
1.32832e-11
-3.79476e-11
3.89812e-11
-1.74879e-11
1.64607e-11
-4.00938e-11
4.1162e-11
-2.17085e-11
2.06548e-11
-4.2228e-11
4.31959e-11
-2.72201e-11
2.62666e-11
-2.33818e-11
-1.77858e-11
2.32585e-11
1.76311e-11
-2.32725e-11
-2.29386e-11
2.30771e-11
2.3037e-11
-2.20553e-11
-2.94592e-11
2.14594e-11
3.00205e-11
-1.76649e-11
-3.69085e-11
1.59719e-11
3.86223e-11
-9.09247e-12
4.5736e-11
-4.28623e-11
6.225e-12
4.44714e-11
6.60707e-15
4.44788e-11
1.99271e-14
4.44914e-11
3.35665e-14
4.45092e-11
4.77443e-14
4.45326e-11
6.26886e-14
4.45619e-11
7.86411e-14
4.45976e-11
9.58604e-14
4.46404e-11
1.14628e-13
4.46908e-11
1.35251e-13
4.47497e-11
1.58071e-13
4.4818e-11
1.83469e-13
4.48969e-11
2.11871e-13
4.49877e-11
2.43762e-13
4.50918e-11
2.79688e-13
4.52109e-11
3.20276e-13
4.5347e-11
3.66242e-13
4.55025e-11
4.18411e-13
4.56798e-11
4.77736e-13
4.58821e-11
5.4532e-13
4.61128e-11
6.2245e-13
4.63758e-11
7.10624e-13
4.66759e-11
8.11616e-13
4.70183e-11
9.27481e-13
4.74092e-11
1.06074e-12
4.7856e-11
1.21421e-12
4.83667e-11
1.39163e-12
4.89516e-11
1.59686e-12
4.96214e-11
1.83575e-12
5.03909e-11
2.11333e-12
5.12741e-11
2.43964e-12
5.22926e-11
2.8204e-12
5.34654e-11
3.27449e-12
5.48242e-11
3.80603e-12
5.63957e-11
4.4532e-12
5.82258e-11
5.2123e-12
6.03558e-11
6.16246e-12
6.28489e-11
7.28051e-12
6.57763e-11
8.72559e-12
6.92182e-11
1.04456e-11
3.73578e-11
1.27333e-11
3.59426e-11
-8.76195e-12
7.53333e-12
3.86016e-11
-3.84009e-11
3.9691e-11
-1.21619e-11
1.08583e-11
-4.11928e-11
4.27228e-11
-1.51895e-11
1.3662e-11
-4.44168e-11
4.61904e-11
-1.92567e-11
1.74918e-11
-4.80941e-11
5.00782e-11
-2.48272e-11
2.28515e-11
-2.77473e-11
-1.65941e-11
2.80456e-11
1.60483e-11
-2.94926e-11
-2.26444e-11
2.98438e-11
2.22053e-11
-3.05904e-11
-3.16153e-11
3.16372e-11
1.63565e-11
1.41624e-11
-1.32156e-11