/*--------------------------------*- C++ -*----------------------------------*\
| =========                 |                                                 |
| \\      /  F ield         | foam-extend: Open Source CFD                    |
|  \\    /   O peration     | Version:     4.0                                |
|   \\  /    A nd           | Web:         http://www.foam-extend.org         |
|    \\/     M anipulation  |                                                 |
\*---------------------------------------------------------------------------*/
FoamFile
{
    version     2.0;
    format      ascii;
    class       volVectorField;
    location    "0.0006";
    object      U;
}
// * * * * * * * * * * * * * * * * * * * * * * * * * * * * * * * * * * * * * //

dimensions      [0 1 -1 0 0 0 0];

internalField   nonuniform List<vector> 
28770
(
(0.00149179 4.35264e-08 0)
(0.00149161 1.31244e-07 0)
(0.00149125 2.20964e-07 0)
(0.00149071 3.14053e-07 0)
(0.00148998 4.11927e-07 0)
(0.00148903 5.16065e-07 0)
(0.00148787 6.28036e-07 0)
(0.00148648 7.49517e-07 0)
(0.00148482 8.82313e-07 0)
(0.00148289 1.02838e-06 0)
(0.00148064 1.18986e-06 0)
(0.00147804 1.36908e-06 0)
(0.00147506 1.56861e-06 0)
(0.00147166 1.79126e-06 0)
(0.00146777 2.04012e-06 0)
(0.00146335 2.31859e-06 0)
(0.00145833 2.63041e-06 0)
(0.00145264 2.97964e-06 0)
(0.0014462 3.37075e-06 0)
(0.00143892 3.80859e-06 0)
(0.00143069 4.29841e-06 0)
(0.00142141 4.84584e-06 0)
(0.00141096 5.45695e-06 0)
(0.00139919 6.13805e-06 0)
(0.00138596 6.89593e-06 0)
(0.0013711 7.7373e-06 0)
(0.00135444 8.66951e-06 0)
(0.00133578 9.69889e-06 0)
(0.00131492 1.08332e-05 0)
(0.00129164 1.20768e-05 0)
(0.00126569 1.34378e-05 0)
(0.00123686 1.49159e-05 0)
(0.00120488 1.65199e-05 0)
(0.00116951 1.82406e-05 0)
(0.00113048 2.00879e-05 0)
(0.00108758 2.20381e-05 0)
(0.00104056 2.41031e-05 0)
(0.000989248 2.62396e-05 0)
(0.000933456 2.84594e-05 0)
(0.000873086 3.06997e-05 0)
(0.000808084 3.29657e-05 0)
(0.000738456 3.51832e-05 0)
(0.000664326 3.7342e-05 0)
(0.000585859 3.93684e-05 0)
(0.000503378 4.12355e-05 0)
(0.00041725 4.28786e-05 0)
(0.000327994 4.42628e-05 0)
(0.000236176 4.53389e-05 0)
(0.000142481 4.60781e-05 0)
(4.76217e-05 4.64533e-05 0)
(0.00149196 1.29933e-07 0)
(0.00149178 3.91783e-07 0)
(0.00149143 6.59615e-07 0)
(0.0014909 9.3751e-07 0)
(0.00149017 1.22969e-06 0)
(0.00148925 1.54058e-06 0)
(0.0014881 1.87487e-06 0)
(0.00148673 2.23755e-06 0)
(0.0014851 2.63404e-06 0)
(0.00148319 3.07018e-06 0)
(0.00148097 3.55234e-06 0)
(0.00147841 4.08753e-06 0)
(0.00147548 4.68338e-06 0)
(0.00147212 5.34832e-06 0)
(0.00146829 6.09161e-06 0)
(0.00146393 6.92341e-06 0)
(0.00145898 7.85489e-06 0)
(0.00145337 8.89826e-06 0)
(0.00144701 1.00669e-05 0)
(0.00143983 1.13753e-05 0)
(0.00143171 1.28393e-05 0)
(0.00142255 1.44758e-05 0)
(0.00141222 1.63029e-05 0)
(0.0014006 1.83397e-05 0)
(0.00138752 2.06066e-05 0)
(0.00137284 2.31238e-05 0)
(0.00135636 2.59135e-05 0)
(0.0013379 2.89947e-05 0)
(0.00131725 3.23911e-05 0)
(0.00129419 3.61157e-05 0)
(0.00126847 4.01935e-05 0)
(0.00123988 4.46236e-05 0)
(0.00120813 4.94328e-05 0)
(0.001173 5.45937e-05 0)
(0.0011342 6.01368e-05 0)
(0.00109152 6.59926e-05 0)
(0.00104468 7.21942e-05 0)
(0.000993513 7.86191e-05 0)
(0.000937823 8.52935e-05 0)
(0.000877498 9.20444e-05 0)
(0.000812474 9.88704e-05 0)
(0.000742741 0.000105568 0)
(0.000668424 0.000112087 0)
(0.000589672 0.00011822 0)
(0.000506815 0.000123872 0)
(0.000420214 0.000128853 0)
(0.000330403 0.00013305 0)
(0.000237954 0.000136316 0)
(0.000143572 0.000138559 0)
(4.7989e-05 0.000139698 0)
(0.0014923 2.14424e-07 0)
(0.00149213 6.4655e-07 0)
(0.00149179 1.08855e-06 0)
(0.00149127 1.54718e-06 0)
(0.00149057 2.0294e-06 0)
(0.00148967 2.54252e-06 0)
(0.00148856 3.09429e-06 0)
(0.00148722 3.69297e-06 0)
(0.00148564 4.34751e-06 0)
(0.00148379 5.06756e-06 0)
(0.00148163 5.86369e-06 0)
(0.00147915 6.74745e-06 0)
(0.0014763 7.73152e-06 0)
(0.00147304 8.82986e-06 0)
(0.00146931 1.00578e-05 0)
(0.00146508 1.14322e-05 0)
(0.00146027 1.29716e-05 0)
(0.00145481 1.46963e-05 0)
(0.00144863 1.66285e-05 0)
(0.00144163 1.87925e-05 0)
(0.00143373 2.12144e-05 0)
(0.00142481 2.39226e-05 0)
(0.00141474 2.69474e-05 0)
(0.0014034 3.03208e-05 0)
(0.00139064 3.40771e-05 0)
(0.0013763 3.82503e-05 0)
(0.00136019 4.28781e-05 0)
(0.00134212 4.79927e-05 0)
(0.00132189 5.36347e-05 0)
(0.00129927 5.98264e-05 0)
(0.00127402 6.66123e-05 0)
(0.00124591 7.39896e-05 0)
(0.00121464 8.201e-05 0)
(0.00117999 9.06217e-05 0)
(0.00114164 9.98903e-05 0)
(0.00109939 0.000109683 0)
(0.00105293 0.000120084 0)
(0.00100207 0.000130853 0)
(0.000946602 0.000142083 0)
(0.00088638 0.000153427 0)
(0.000821325 0.000164943 0)
(0.000751398 0.000176227 0)
(0.000676714 0.000187248 0)
(0.000597398 0.000197611 0)
(0.000513789 0.000207184 0)
(0.000426237 0.000215621 0)
(0.000335301 0.000222743 0)
(0.00024157 0.000228287 0)
(0.000145793 0.000232099 0)
(4.8737e-05 0.000234035 0)
(0.0014928 2.95756e-07 0)
(0.00149264 8.91793e-07 0)
(0.00149231 1.50147e-06 0)
(0.00149182 2.1341e-06 0)
(0.00149115 2.79931e-06 0)
(0.00149029 3.50721e-06 0)
(0.00148923 4.26848e-06 0)
(0.00148795 5.09458e-06 0)
(0.00148644 5.99783e-06 0)
(0.00148467 6.99164e-06 0)
(0.00148262 8.09061e-06 0)
(0.00148024 9.31074e-06 0)
(0.00147752 1.06696e-05 0)
(0.0014744 1.21866e-05 0)
(0.00147084 1.3883e-05 0)
(0.00146678 1.57822e-05 0)
(0.00146218 1.791e-05 0)
(0.00145695 2.02947e-05 0)
(0.00145102 2.29673e-05 0)
(0.00144432 2.59616e-05 0)
(0.00143673 2.93145e-05 0)
(0.00142816 3.30654e-05 0)
(0.00141849 3.72573e-05 0)
(0.00140758 4.1935e-05 0)
(0.00139529 4.71473e-05 0)
(0.00138145 5.29423e-05 0)
(0.0013659 5.93741e-05 0)
(0.00134843 6.64885e-05 0)
(0.00132883 7.43452e-05 0)
(0.00130689 8.29756e-05 0)
(0.00128234 9.24473e-05 0)
(0.00125496 0.000102755 0)
(0.00122442 0.000113981 0)
(0.00119051 0.000126048 0)
(0.00115287 0.000139063 0)
(0.00111129 0.000152831 0)
(0.00106541 0.000167488 0)
(0.00101505 0.000182691 0)
(0.000959927 0.00019858 0)
(0.000899882 0.000214671 0)
(0.0008348 0.000231039 0)
(0.000764582 0.00024713 0)
(0.000689362 0.000262875 0)
(0.000609192 0.000277724 0)
(0.000524451 0.000291467 0)
(0.00043545 0.000303608 0)
(0.000342805 0.000313872 0)
(0.000247114 0.000321873 0)
(0.0001492 0.00032738 0)
(4.98845e-05 0.000330179 0)
(0.00149346 3.72714e-07 0)
(0.00149331 1.12385e-06 0)
(0.001493 1.89221e-06 0)
(0.00149254 2.68953e-06 0)
(0.00149191 3.52798e-06 0)
(0.00149111 4.42032e-06 0)
(0.00149011 5.38005e-06 0)
(0.00148892 6.42164e-06 0)
(0.0014875 7.56068e-06 0)
(0.00148584 8.81414e-06 0)
(0.0014839 1.02005e-05 0)
(0.00148168 1.17401e-05 0)
(0.00147912 1.34551e-05 0)
(0.00147618 1.53702e-05 0)
(0.00147284 1.75124e-05 0)
(0.00146902 1.99116e-05 0)
(0.00146469 2.26005e-05 0)
(0.00145976 2.56154e-05 0)
(0.00145418 2.8996e-05 0)
(0.00144785 3.27854e-05 0)
(0.00144068 3.70311e-05 0)
(0.00143258 4.1784e-05 0)
(0.00142343 4.70996e-05 0)
(0.00141309 5.30361e-05 0)
(0.00140142 5.96572e-05 0)
(0.00138827 6.70257e-05 0)
(0.00137345 7.52139e-05 0)
(0.00135678 8.42816e-05 0)
(0.00133803 9.43109e-05 0)
(0.001317 0.000105342 0)
(0.00129339 0.000117474 0)
(0.001267 0.000130694 0)
(0.00123745 0.000145135 0)
(0.00120455 0.000160671 0)
(0.00116787 0.000177499 0)
(0.00112722 0.000195301 0)
(0.00108217 0.000214372 0)
(0.00103252 0.000234118 0)
(0.000977915 0.00025493 0)
(0.000918163 0.000275936 0)
(0.000853108 0.000297503 0)
(0.000782571 0.000318639 0)
(0.000706672 0.000339473 0)
(0.000625395 0.000359103 0)
(0.000539134 0.000377362 0)
(0.000448175 0.000393506 0)
(0.000353186 0.000407198 0)
(0.000254797 0.000417884 0)
(0.000153926 0.000425253 0)
(5.14772e-05 0.000428999 0)
(0.00149427 4.4416e-07 0)
(0.00149413 1.3393e-06 0)
(0.00149385 2.25499e-06 0)
(0.00149342 3.20526e-06 0)
(0.00149284 4.20464e-06 0)
(0.0014921 5.26838e-06 0)
(0.00149119 6.41261e-06 0)
(0.00149009 7.65464e-06 0)
(0.00148879 9.01314e-06 0)
(0.00148726 1.05084e-05 0)
(0.00148548 1.21626e-05 0)
(0.00148343 1.40001e-05 0)
(0.00148107 1.60476e-05 0)
(0.00147837 1.83348e-05 0)
(0.00147528 2.08941e-05 0)
(0.00147177 2.37616e-05 0)
(0.00146776 2.6977e-05 0)
(0.00146321 3.0584e-05 0)
(0.00145804 3.46308e-05 0)
(0.00145218 3.917e-05 0)
(0.00144554 4.42595e-05 0)
(0.00143802 4.99615e-05 0)
(0.00142951 5.63444e-05 0)
(0.00141988 6.34798e-05 0)
(0.00140899 7.14472e-05 0)
(0.00139669 8.03246e-05 0)
(0.00138279 9.02034e-05 0)
(0.00136713 0.000101159 0)
(0.00134945 0.000113298 0)
(0.00132957 0.000126671 0)
(0.00130717 0.000141412 0)
(0.00128204 0.000157504 0)
(0.00125377 0.00017513 0)
(0.0012222 0.000194131 0)
(0.00118677 0.000214783 0)
(0.00114739 0.000236681 0)
(0.00110342 0.000260223 0)
(0.00105477 0.000284684 0)
(0.00100087 0.000310539 0)
(0.000941568 0.000336782 0)
(0.000876613 0.000363778 0)
(0.000805677 0.000390422 0)
(0.000728982 0.000416744 0)
(0.000646291 0.000441696 0)
(0.000558136 0.000464966 0)
(0.000464664 0.00048563 0)
(0.000366675 0.000503201 0)
(0.000264793 0.000516952 0)
(0.000160084 0.000526451 0)
(5.35528e-05 0.000531286 0)
(0.00149521 5.09026e-07 0)
(0.00149508 1.53491e-06 0)
(0.00149483 2.58439e-06 0)
(0.00149445 3.67359e-06 0)
(0.00149393 4.81921e-06 0)
(0.00149327 6.03876e-06 0)
(0.00149245 7.35081e-06 0)
(0.00149146 8.77528e-06 0)
(0.00149029 1.03337e-05 0)
(0.00148892 1.20493e-05 0)
(0.00148732 1.39479e-05 0)
(0.00148548 1.60575e-05 0)
(0.00148336 1.84091e-05 0)
(0.00148093 2.10369e-05 0)
(0.00147815 2.39787e-05 0)
(0.00147498 2.72764e-05 0)
(0.00147137 3.09762e-05 0)
(0.00146726 3.51291e-05 0)
(0.00146258 3.97915e-05 0)
(0.00145728 4.50253e-05 0)
(0.00145125 5.08985e-05 0)
(0.00144442 5.74849e-05 0)
(0.00143666 6.48656e-05 0)
(0.00142788 7.31264e-05 0)
(0.00141791 8.23629e-05 0)
(0.00140663 9.26691e-05 0)
(0.00139385 0.000104158 0)
(0.0013794 0.000116921 0)
(0.00136301 0.000131095 0)
(0.00134453 0.000146739 0)
(0.00132358 0.000164039 0)
(0.00130001 0.000182956 0)
(0.00127331 0.000203778 0)
(0.00124338 0.00022624 0)
(0.00120953 0.000250838 0)
(0.00117172 0.000276877 0)
(0.00112917 0.000305211 0)
(0.00108179 0.000334475 0)
(0.00102893 0.000365954 0)
(0.000970292 0.000397576 0)
(0.000905631 0.000430759 0)
(0.000834435 0.000463202 0)
(0.000756878 0.000495708 0)
(0.000672612 0.000526427 0)
(0.000582154 0.000555333 0)
(0.000485614 0.000581028 0)
(0.000383855 0.000602997 0)
(0.000277563 0.000620223 0)
(0.000167961 0.000632158 0)
(5.6212e-05 0.00063824 0)
(0.00149627 5.66328e-07 0)
(0.00149616 1.70772e-06 0)
(0.00149594 2.87543e-06 0)
(0.00149561 4.08744e-06 0)
(0.00149516 5.36238e-06 0)
(0.00149458 6.71979e-06 0)
(0.00149387 8.18045e-06 0)
(0.00149301 9.76658e-06 0)
(0.00149199 1.15023e-05 0)
(0.0014908 1.34137e-05 0)
(0.00148941 1.55295e-05 0)
(0.0014878 1.78814e-05 0)
(0.00148595 2.0504e-05 0)
(0.00148382 2.3436e-05 0)
(0.00148139 2.672e-05 0)
(0.00147862 3.04033e-05 0)
(0.00147545 3.45382e-05 0)
(0.00147184 3.91828e-05 0)
(0.00146773 4.44013e-05 0)
(0.00146306 5.02643e-05 0)
(0.00145774 5.68501e-05 0)
(0.0014517 6.42434e-05 0)
(0.00144482 7.25386e-05 0)
(0.00143701 8.18351e-05 0)
(0.00142812 9.22456e-05 0)
(0.00141803 0.000103881 0)
(0.00140654 0.000116876 0)
(0.00139351 0.000131339 0)
(0.00137865 0.000147442 0)
(0.00136183 0.000165254 0)
(0.00134263 0.000185012 0)
(0.00132095 0.000206672 0)
(0.00129615 0.000230601 0)
(0.00126828 0.000256496 0)
(0.00123636 0.000284965 0)
(0.00120063 0.00031524 0)
(0.00115981 0.000348278 0)
(0.00111424 0.000382671 0)
(0.00106266 0.000419668 0)
(0.00100502 0.000457321 0)
(0.000940872 0.000496719 0)
(0.000869272 0.00053588 0)
(0.00079089 0.000575097 0)
(0.000704675 0.000612614 0)
(0.000611601 0.000647985 0)
(0.000511335 0.00067968 0)
(0.000405053 0.000706859 0)
(0.000293346 0.000728278 0)
(0.000177725 0.00074315 0)
(5.95078e-05 0.000750747 0)
(0.00149743 6.15201e-07 0)
(0.00149734 1.85511e-06 0)
(0.00149716 3.12369e-06 0)
(0.00149688 4.44052e-06 0)
(0.00149651 5.82591e-06 0)
(0.00149603 7.30116e-06 0)
(0.00149543 8.88894e-06 0)
(0.00149471 1.06135e-05 0)
(0.00149386 1.25012e-05 0)
(0.00149286 1.45807e-05 0)
(0.0014917 1.68834e-05 0)
(0.00149035 1.94439e-05 0)
(0.0014888 2.23005e-05 0)
(0.00148701 2.54955e-05 0)
(0.00148497 2.90761e-05 0)
(0.00148263 3.30945e-05 0)
(0.00147996 3.76088e-05 0)
(0.00147691 4.26834e-05 0)
(0.00147343 4.83899e-05 0)
(0.00146947 5.48073e-05 0)
(0.00146494 6.20236e-05 0)
(0.00145978 7.01347e-05 0)
(0.00145389 7.92475e-05 0)
(0.00144717 8.94756e-05 0)
(0.0014395 0.000100949 0)
(0.00143075 0.000113796 0)
(0.00142074 0.000128177 0)
(0.00140932 0.000144217 0)
(0.00139622 0.000162129 0)
(0.00138132 0.00018199 0)
(0.00136414 0.000204117 0)
(0.00134465 0.00022842 0)
(0.0013221 0.000255458 0)
(0.00129661 0.000284713 0)
(0.00126705 0.000317277 0)
(0.00123371 0.000351704 0)
(0.00119519 0.000390124 0)
(0.00115169 0.000429457 0)
(0.00110202 0.000473334 0)
(0.00104574 0.000516713 0)
(0.000982552 0.000564144 0)
(0.000911179 0.000610058 0)
(0.000832012 0.00065726 0)
(0.000743981 0.000702061 0)
(0.000647822 0.000744921 0)
(0.000543259 0.000783379 0)
(0.00043144 0.000816629 0)
(0.000313098 0.000842919 0)
(0.000189961 0.000861253 0)
(6.36503e-05 0.000870634 0)
(0.00149869 6.54892e-07 0)
(0.00149862 1.97483e-06 0)
(0.00149847 3.32536e-06 0)
(0.00149826 4.72742e-06 0)
(0.00149796 6.20267e-06 0)
(0.00149758 7.77391e-06 0)
(0.00149711 9.46536e-06 0)
(0.00149655 1.1303e-05 0)
(0.00149588 1.33151e-05 0)
(0.00149509 1.55323e-05 0)
(0.00149417 1.79884e-05 0)
(0.0014931 2.07206e-05 0)
(0.00149187 2.37703e-05 0)
(0.00149046 2.71831e-05 0)
(0.00148883 3.10099e-05 0)
(0.00148697 3.53075e-05 0)
(0.00148484 4.0139e-05 0)
(0.0014824 4.55747e-05 0)
(0.00147961 5.16929e-05 0)
(0.00147641 5.85806e-05 0)
(0.00147275 6.63347e-05 0)
(0.00146856 7.50615e-05 0)
(0.00146376 8.48806e-05 0)
(0.00145826 9.59193e-05 0)
(0.00145194 0.000108325 0)
(0.00144469 0.000122243 0)
(0.00143633 0.000137859 0)
(0.00142675 0.000155321 0)
(0.00141564 0.000174876 0)
(0.00140294 0.000196624 0)
(0.00138809 0.000220936 0)
(0.00137123 0.000247743 0)
(0.00135127 0.000277674 0)
(0.00132881 0.00031024 0)
(0.00130195 0.00034658 0)
(0.00127196 0.000385369 0)
(0.00123595 0.00042857 0)
(0.00119572 0.000473609 0)
(0.0011481 0.000523282 0)
(0.00109394 0.00057396 0)
(0.00103227 0.000628228 0)
(0.00096045 0.000682894 0)
(0.000880977 0.000738543 0)
(0.00079051 0.000792618 0)
(0.000691226 0.000844303 0)
(0.000581551 0.000891299 0)
(0.000463353 0.000932069 0)
(0.000337041 0.000964567 0)
(0.000204864 0.000987295 0)
(6.86941e-05 0.000998971 0)
(0.00150001 6.84779e-07 0)
(0.00149996 2.06498e-06 0)
(0.00149986 3.47728e-06 0)
(0.0014997 4.9436e-06 0)
(0.00149949 6.48672e-06 0)
(0.00149922 8.13055e-06 0)
(0.00149889 9.90054e-06 0)
(0.00149848 1.18241e-05 0)
(0.001498 1.39308e-05 0)
(0.00149744 1.62531e-05 0)
(0.00149678 1.88267e-05 0)
(0.00149601 2.16909e-05 0)
(0.00149513 2.48894e-05 0)
(0.0014941 2.84708e-05 0)
(0.00149293 3.24893e-05 0)
(0.00149157 3.70052e-05 0)
(0.00149002 4.20861e-05 0)
(0.00148823 4.78074e-05 0)
(0.00148617 5.42536e-05 0)
(0.0014838 6.15185e-05 0)
(0.00148108 6.97075e-05 0)
(0.00147794 7.89367e-05 0)
(0.00147431 8.93374e-05 0)
(0.00147013 0.000101051 0)
(0.00146528 0.000114241 0)
(0.00145967 0.000129072 0)
(0.00145313 0.000145755 0)
(0.00144557 0.000164459 0)
(0.00143666 0.000185479 0)
(0.00142642 0.000208924 0)
(0.00141419 0.000235273 0)
(0.00140021 0.000264385 0)
(0.00138329 0.000297198 0)
(0.00136408 0.000332831 0)
(0.00134062 0.000373357 0)
(0.00131399 0.000416033 0)
(0.0012816 0.000465484 0)
(0.00124443 0.000515065 0)
(0.00120028 0.000573982 0)
(0.0011485 0.000629776 0)
(0.00108922 0.000695902 0)
(0.0010192 0.000758194 0)
(0.000939451 0.000824486 0)
(0.000847538 0.000888055 0)
(0.000744447 0.000950098 0)
(0.000629198 0.00100675 0)
(0.000503182 0.00105642 0)
(0.000367174 0.00109625 0)
(0.000223649 0.00112426 0)
(7.50832e-05 0.0011387 0)
(0.00150138 7.04386e-07 0)
(0.00150135 2.12414e-06 0)
(0.00150129 3.57701e-06 0)
(0.0015012 5.08563e-06 0)
(0.00150108 6.6735e-06 0)
(0.00150092 8.36535e-06 0)
(0.00150073 1.01875e-05 0)
(0.00150049 1.21682e-05 0)
(0.00150021 1.43383e-05 0)
(0.00149988 1.67313e-05 0)
(0.00149949 1.93844e-05 0)
(0.00149904 2.23384e-05 0)
(0.00149851 2.56389e-05 0)
(0.0014979 2.93367e-05 0)
(0.00149719 3.34884e-05 0)
(0.00149637 3.81575e-05 0)
(0.00149542 4.34151e-05 0)
(0.00149431 4.93408e-05 0)
(0.00149303 5.60241e-05 0)
(0.00149154 6.35651e-05 0)
(0.00148981 7.20764e-05 0)
(0.00148778 8.16829e-05 0)
(0.00148541 9.25266e-05 0)
(0.00148264 0.000104761 0)
(0.00147937 0.000118567 0)
(0.00147555 0.000134126 0)
(0.00147098 0.000151674 0)
(0.00146565 0.000171406 0)
(0.00145918 0.000193649 0)
(0.0014517 0.000218556 0)
(0.0014424 0.00024664 0)
(0.00143186 0.000277849 0)
(0.00141829 0.00031311 0)
(0.00140338 0.000351778 0)
(0.00138342 0.000395671 0)
(0.00136217 0.000442791 0)
(0.00133292 0.000496627 0)
(0.00130196 0.000552769 0)
(0.00126042 0.000616896 0)
(0.00121332 0.000682174 0)
(0.00115801 0.000754215 0)
(0.00108635 0.000828792 0)
(0.00100813 0.000905982 0)
(0.000913503 0.000982867 0)
(0.000807451 0.00105757 0)
(0.000685659 0.00112701 0)
(0.00055098 0.00118827 0)
(0.000403466 0.00123795 0)
(0.000246433 0.00127307 0)
(8.28329e-05 0.00129127 0)
(0.00150278 7.13386e-07 0)
(0.00150277 2.15131e-06 0)
(0.00150276 3.62288e-06 0)
(0.00150273 5.1511e-06 0)
(0.0015027 6.75986e-06 0)
(0.00150266 8.4743e-06 0)
(0.00150261 1.03212e-05 0)
(0.00150255 1.23295e-05 0)
(0.00150247 1.45304e-05 0)
(0.00150238 1.69584e-05 0)
(0.00150227 1.96514e-05 0)
(0.00150214 2.26512e-05 0)
(0.00150198 2.60048e-05 0)
(0.00150179 2.97642e-05 0)
(0.00150156 3.39879e-05 0)
(0.00150129 3.87416e-05 0)
(0.00150097 4.40989e-05 0)
(0.00150057 5.01428e-05 0)
(0.0015001 5.69667e-05 0)
(0.00149952 6.46756e-05 0)
(0.00149882 7.3388e-05 0)
(0.00149796 8.32367e-05 0)
(0.00149691 9.43726e-05 0)
(0.00149563 0.000106961 0)
(0.00149403 0.000121198 0)
(0.00149209 0.000137282 0)
(0.00148963 0.000155471 0)
(0.00148667 0.000175987 0)
(0.00148283 0.000199201 0)
(0.0014783 0.000225285 0)
(0.00147225 0.000254862 0)
(0.00146529 0.000287822 0)
(0.00145568 0.00032545 0)
(0.00144492 0.00036662 0)
(0.00142973 0.000414482 0)
(0.00141285 0.000464803 0)
(0.00138929 0.000525846 0)
(0.00136219 0.000584999 0)
(0.00132699 0.00066288 0)
(0.00128296 0.00072902 0)
(0.00123278 0.000822435 0)
(0.0011678 0.000905006 0)
(0.00109032 0.000995331 0)
(0.000995972 0.00108504 0)
(0.00088559 0.00117426 0)
(0.000757176 0.00125844 0)
(0.000611808 0.00133343 0)
(0.000450204 0.0013949 0)
(0.000275859 0.00143867 0)
(9.29022e-05 0.00146148 0)
(0.00150419 7.11609e-07 0)
(0.0015042 2.14599e-06 0)
(0.00150423 3.61403e-06 0)
(0.00150427 5.13876e-06 0)
(0.00150433 6.74411e-06 0)
(0.00150441 8.45527e-06 0)
(0.0015045 1.02991e-05 0)
(0.00150462 1.23046e-05 0)
(0.00150475 1.45032e-05 0)
(0.0015049 1.69296e-05 0)
(0.00150507 1.96219e-05 0)
(0.00150526 2.26224e-05 0)
(0.00150548 2.59786e-05 0)
(0.00150572 2.97431e-05 0)
(0.00150598 3.39755e-05 0)
(0.00150627 3.87426e-05 0)
(0.00150658 4.41196e-05 0)
(0.00150691 5.01916e-05 0)
(0.00150726 5.70546e-05 0)
(0.00150762 6.4817e-05 0)
(0.00150798 7.36021e-05 0)
(0.00150833 8.35482e-05 0)
(0.00150864 9.48139e-05 0)
(0.00150891 0.000107575 0)
(0.00150906 0.000122037 0)
(0.00150911 0.000138418 0)
(0.00150888 0.000156992 0)
(0.00150847 0.000178016 0)
(0.00150745 0.000201873 0)
(0.0015062 0.000228817 0)
(0.00150363 0.00025945 0)
(0.00150098 0.000293865 0)
(0.00149545 0.000333169 0)
(0.00149056 0.000376827 0)
(0.00147956 0.000427187 0)
(0.00147121 0.000481862 0)
(0.00145061 0.000546162 0)
(0.00143614 0.000613124 0)
(0.00140144 0.00069387 0)
(0.00136955 0.000773782 0)
(0.00133033 0.000865587 0)
(0.00125565 0.000966812 0)
(0.00118441 0.00107289 0)
(0.0010887 0.00118201 0)
(0.000977241 0.00129034 0)
(0.000841521 0.00139408 0)
(0.000684598 0.00148812 0)
(0.000506508 0.00156631 0)
(0.00031163 0.00162253 0)
(0.000105174 0.00165201 0)
(0.00150558 6.99049e-07 0)
(0.00150561 2.10814e-06 0)
(0.00150569 3.55041e-06 0)
(0.0015058 5.04854e-06 0)
(0.00150595 6.62614e-06 0)
(0.00150614 8.30806e-06 0)
(0.00150638 1.01208e-05 0)
(0.00150666 1.20931e-05 0)
(0.001507 1.4256e-05 0)
(0.00150739 1.66439e-05 0)
(0.00150784 1.92946e-05 0)
(0.00150836 2.22501e-05 0)
(0.00150895 2.55577e-05 0)
(0.00150962 2.92701e-05 0)
(0.00151038 3.34466e-05 0)
(0.00151122 3.81543e-05 0)
(0.00151218 4.34689e-05 0)
(0.00151324 4.94761e-05 0)
(0.00151442 5.62733e-05 0)
(0.00151572 6.39707e-05 0)
(0.00151716 7.26941e-05 0)
(0.00151873 8.25859e-05 0)
(0.00152044 9.38094e-05 0)
(0.00152228 0.000106548 0)
(0.00152423 0.000121017 0)
(0.00152631 0.000137448 0)
(0.0015284 0.00015613 0)
(0.00153062 0.000177349 0)
(0.00153257 0.000201508 0)
(0.00153468 0.000228918 0)
(0.00153594 0.000260211 0)
(0.00153747 0.000295568 0)
(0.00153692 0.000336204 0)
(0.00153698 0.000381557 0)
(0.00153258 0.000434661 0)
(0.00152934 0.00049183 0)
(0.00151781 0.000562678 0)
(0.00150682 0.000630741 0)
(0.0014843 0.000732327 0)
(0.00145109 0.000795721 0)
(0.00142179 0.000938359 0)
(0.00137078 0.00104857 0)
(0.00130103 0.00116146 0)
(0.00120889 0.00128912 0)
(0.00109323 0.00141803 0)
(0.000950834 0.00154622 0)
(0.000780446 0.00166266 0)
(0.00058181 0.00176093 0)
(0.000359776 0.00183234 0)
(0.00012177 0.00187017 0)
(0.00150693 6.75863e-07 0)
(0.00150699 2.03825e-06 0)
(0.00150711 3.43281e-06 0)
(0.00150729 4.88155e-06 0)
(0.00150753 6.40737e-06 0)
(0.00150783 8.03441e-06 0)
(0.00150821 9.78846e-06 0)
(0.00150866 1.16974e-05 0)
(0.0015092 1.37915e-05 0)
(0.00150983 1.61042e-05 0)
(0.00151056 1.86726e-05 0)
(0.00151139 2.15377e-05 0)
(0.00151235 2.47457e-05 0)
(0.00151344 2.83485e-05 0)
(0.00151468 3.24044e-05 0)
(0.00151608 3.69795e-05 0)
(0.00151767 4.21487e-05 0)
(0.00151945 4.79972e-05 0)
(0.00152145 5.46218e-05 0)
(0.0015237 6.21329e-05 0)
(0.00152621 7.06565e-05 0)
(0.00152901 8.03369e-05 0)
(0.00153211 9.13392e-05 0)
(0.00153555 0.000103852 0)
(0.00153932 0.000118094 0)
(0.00154349 0.000134313 0)
(0.00154795 0.0001528 0)
(0.0015529 0.000173876 0)
(0.00155794 0.000197941 0)
(0.00156368 0.000225396 0)
(0.00156889 0.000256821 0)
(0.00157539 0.00029265 0)
(0.00157965 0.000333843 0)
(0.00158697 0.000380591 0)
(0.00158753 0.000434935 0)
(0.00159656 0.000495552 0)
(0.00158662 0.000568382 0)
(0.00160225 0.000644982 0)
(0.00156298 0.000747667 0)
(0.00160894 0.000834914 0)
(0.00157612 0.000934511 0)
(0.00143538 0.000925892 0)
(0.00140083 0.00106504 0)
(0.00133311 0.00121762 0)
(0.00123418 0.00137704 0)
(0.00109951 0.00153967 0)
(0.000926626 0.00169937 0)
(0.000717816 0.0018448 0)
(0.00047696 0.00196291 0)
(0.000211924 0.00204274 0)
(0.00150823 6.4237e-07 0)
(0.00150831 1.93727e-06 0)
(0.00150847 3.26284e-06 0)
(0.00150871 4.64006e-06 0)
(0.00150904 6.09077e-06 0)
(0.00150945 7.63801e-06 0)
(0.00150997 9.30642e-06 0)
(0.00151058 1.11226e-05 0)
(0.00151132 1.31156e-05 0)
(0.00151217 1.53175e-05 0)
(0.00151316 1.77637e-05 0)
(0.00151431 2.04938e-05 0)
(0.00151562 2.35521e-05 0)
(0.00151712 2.69888e-05 0)
(0.00151883 3.08601e-05 0)
(0.00152077 3.52302e-05 0)
(0.00152296 4.01718e-05 0)
(0.00152545 4.57678e-05 0)
(0.00152826 5.21129e-05 0)
(0.00153142 5.93155e-05 0)
(0.00153498 6.74998e-05 0)
(0.00153898 7.68088e-05 0)
(0.00154346 8.74066e-05 0)
(0.00154848 9.94833e-05 0)
(0.00155406 0.000113257 0)
(0.0015603 0.000128984 0)
(0.00156714 0.000146953 0)
(0.00157482 0.000167517 0)
(0.00158302 0.000191054 0)
(0.00159233 0.000218067 0)
(0.00160179 0.000249021 0)
(0.00161289 0.000284698 0)
(0.00162303 0.000325537 0)
(0.00163597 0.000372993 0)
(0.00164515 0.000426845 0)
(0.00166001 0.000490719 0)
(0.00166413 0.000560725 0)
(0.00168237 0.000649207 0)
(0.00167028 0.000734149 0)
(0.00170324 0.000868037 0)
(0.0017487 0.000949737 0)
(0.00156869 0.00101716 0)
(0.00154606 0.00117502 0)
(0.00149013 0.00134949 0)
(0.00139823 0.00153591 0)
(0.00126536 0.00172659 0)
(0.00107767 0.00192311 0)
(0.000844618 0.00210302 0)
(0.000566377 0.00224767 0)
(0.000252261 0.00234039 0)
(0.00150946 5.99057e-07 0)
(0.00150956 1.80668e-06 0)
(0.00150975 3.04296e-06 0)
(0.00151005 4.32756e-06 0)
(0.00151046 5.6809e-06 0)
(0.00151098 7.12455e-06 0)
(0.00151162 8.68159e-06 0)
(0.00151239 1.0377e-05 0)
(0.00151331 1.2238e-05 0)
(0.00151438 1.42947e-05 0)
(0.00151562 1.65804e-05 0)
(0.00151706 1.91326e-05 0)
(0.00151871 2.1993e-05 0)
(0.0015206 2.52088e-05 0)
(0.00152275 2.88337e-05 0)
(0.0015252 3.29283e-05 0)
(0.00152798 3.7562e-05 0)
(0.00153114 4.28139e-05 0)
(0.00153472 4.87747e-05 0)
(0.00153877 5.55485e-05 0)
(0.00154334 6.32553e-05 0)
(0.0015485 7.20338e-05 0)
(0.00155431 8.20435e-05 0)
(0.00156086 9.34718e-05 0)
(0.0015682 0.000106532 0)
(0.00157648 0.000121482 0)
(0.00158568 0.000138606 0)
(0.00159608 0.000158272 0)
(0.00160744 0.000180847 0)
(0.00162044 0.000206884 0)
(0.00163413 0.000236827 0)
(0.00165031 0.000271571 0)
(0.0016661 0.000311535 0)
(0.00168616 0.000358343 0)
(0.00170281 0.000411957 0)
(0.00172765 0.000475808 0)
(0.00174181 0.000547661 0)
(0.00177207 0.000636555 0)
(0.00177725 0.000730194 0)
(0.00180882 0.00086018 0)
(0.00190772 0.000949193 0)
(0.00172157 0.00107416 0)
(0.00171636 0.00125099 0)
(0.00167763 0.00145209 0)
(0.00160009 0.00167304 0)
(0.00148463 0.0018898 0)
(0.00127158 0.00214816 0)
(0.00101345 0.00238452 0)
(0.000688809 0.00257566 0)
(0.000307933 0.00269664 0)
(0.00151059 5.46555e-07 0)
(0.00151071 1.64836e-06 0)
(0.00151094 2.77638e-06 0)
(0.00151129 3.9486e-06 0)
(0.00151178 5.1837e-06 0)
(0.00151239 6.50144e-06 0)
(0.00151315 7.92297e-06 0)
(0.00151407 9.47117e-06 0)
(0.00151515 1.11711e-05 0)
(0.00151642 1.30503e-05 0)
(0.0015179 1.51396e-05 0)
(0.00151961 1.74732e-05 0)
(0.00152157 2.00899e-05 0)
(0.00152382 2.30332e-05 0)
(0.00152639 2.63527e-05 0)
(0.00152931 3.01048e-05 0)
(0.00153264 3.43539e-05 0)
(0.00153643 3.91737e-05 0)
(0.00154073 4.46491e-05 0)
(0.0015456 5.08778e-05 0)
(0.00155112 5.79726e-05 0)
(0.00155738 6.60649e-05 0)
(0.00156445 7.53057e-05 0)
(0.00157246 8.58748e-05 0)
(0.00158148 9.79752e-05 0)
(0.0015917 0.00011186 0)
(0.00160316 0.000127799 0)
(0.00161618 0.000146166 0)
(0.00163062 0.000167298 0)
(0.00164715 0.000191804 0)
(0.00166513 0.000220023 0)
(0.00168604 0.000253082 0)
(0.00170799 0.000291022 0)
(0.0017343 0.000336294 0)
(0.00176016 0.000387539 0)
(0.00179289 0.000450844 0)
(0.00182153 0.000519954 0)
(0.0018611 0.000611082 0)
(0.00188924 0.000703121 0)
(0.00193242 0.000838771 0)
(0.00205735 0.000928563 0)
(0.00189075 0.00109587 0)
(0.00191109 0.00129153 0)
(0.00189762 0.0015237 0)
(0.00183655 0.00180182 0)
(0.0017588 0.00215951 0)
(0.00154626 0.00248505 0)
(0.00123737 0.00279927 0)
(0.000823156 0.00306309 0)
(0.000318973 0.0032243 0)
(0.00151161 4.85657e-07 0)
(0.00151174 1.46471e-06 0)
(0.00151201 2.46712e-06 0)
(0.00151241 3.50888e-06 0)
(0.00151296 4.60667e-06 0)
(0.00151366 5.77808e-06 0)
(0.00151453 7.04198e-06 0)
(0.00151557 8.4188e-06 0)
(0.00151681 9.9309e-06 0)
(0.00151827 1.1603e-05 0)
(0.00151996 1.34625e-05 0)
(0.00152191 1.55403e-05 0)
(0.00152415 1.7871e-05 0)
(0.00152673 2.04939e-05 0)
(0.00152967 2.34535e-05 0)
(0.00153303 2.68007e-05 0)
(0.00153686 3.05937e-05 0)
(0.00154122 3.48994e-05 0)
(0.00154618 3.97947e-05 0)
(0.00155181 4.53688e-05 0)
(0.00155821 5.17248e-05 0)
(0.00156547 5.89833e-05 0)
(0.00157371 6.72833e-05 0)
(0.00158306 7.67918e-05 0)
(0.00159365 8.76969e-05 0)
(0.00160568 0.000100238 0)
(0.00161927 0.000114665 0)
(0.00163476 0.00013134 0)
(0.00165213 0.000150581 0)
(0.00167207 0.000172979 0)
(0.00169414 0.000198878 0)
(0.00171983 0.000229353 0)
(0.00174758 0.000264579 0)
(0.00178067 0.000306731 0)
(0.00181497 0.000355175 0)
(0.00185731 0.00041471 0)
(0.00189871 0.000482028 0)
(0.00195142 0.00056834 0)
(0.0020002 0.000662677 0)
(0.00206017 0.000791536 0)
(0.00220847 0.000881416 0)
(0.0020748 0.00108001 0)
(0.00212982 0.00129019 0)
(0.00215713 0.0015457 0)
(0.00214457 0.00185089 0)
(0.00212512 0.00229433 0)
(0.00193892 0.00272391 0)
(0.00161031 0.00317142 0)
(0.00111269 0.00357223 0)
(0.000454814 0.00383014 0)
(0.0015125 4.1727e-07 0)
(0.00151265 1.25847e-06 0)
(0.00151294 2.11978e-06 0)
(0.00151339 3.01497e-06 0)
(0.001514 3.95839e-06 0)
(0.00151478 4.96523e-06 0)
(0.00151574 6.05173e-06 0)
(0.0015169 7.23552e-06 0)
(0.00151827 8.5359e-06 0)
(0.00151988 9.97421e-06 0)
(0.00152176 1.15742e-05 0)
(0.00152392 1.33626e-05 0)
(0.00152642 1.53693e-05 0)
(0.00152928 1.76285e-05 0)
(0.00153256 2.01789e-05 0)
(0.0015363 2.30647e-05 0)
(0.00154057 2.63367e-05 0)
(0.00154544 3.00534e-05 0)
(0.00155098 3.42822e-05 0)
(0.00155728 3.91013e-05 0)
(0.00156446 4.46015e-05 0)
(0.00157261 5.08895e-05 0)
(0.00158189 5.80883e-05 0)
(0.00159245 6.63471e-05 0)
(0.00160444 7.58332e-05 0)
(0.00161811 8.67631e-05 0)
(0.00163362 9.93608e-05 0)
(0.00165135 0.00011396 0)
(0.00167139 0.000130843 0)
(0.00169444 0.000150575 0)
(0.00172033 0.000173442 0)
(0.00175038 0.000200521 0)
(0.00178376 0.000231873 0)
(0.001823 0.00026978 0)
(0.00186589 0.000313366 0)
(0.0019171 0.00036778 0)
(0.00197195 0.000429409 0)
(0.00203799 0.000509796 0)
(0.00210779 0.000599119 0)
(0.00218981 0.00072101 0)
(0.00235488 0.000803102 0)
(0.00226815 0.0010234 0)
(0.00236695 0.00124172 0)
(0.00244935 0.00151684 0)
(0.00250358 0.00186261 0)
(0.00257053 0.00237518 0)
(0.00245532 0.00293641 0)
(0.00214414 0.00357604 0)
(0.00155345 0.00421235 0)
(0.000661134 0.00466231 0)
(0.00151325 3.42449e-07 0)
(0.00151341 1.03283e-06 0)
(0.00151373 1.73973e-06 0)
(0.00151421 2.47449e-06 0)
(0.00151487 3.2489e-06 0)
(0.00151571 4.07546e-06 0)
(0.00151675 4.96754e-06 0)
(0.00151801 5.93965e-06 0)
(0.00151949 7.0077e-06 0)
(0.00152124 8.18928e-06 0)
(0.00152327 9.504e-06 0)
(0.00152562 1.09739e-05 0)
(0.00152833 1.26237e-05 0)
(0.00153144 1.44818e-05 0)
(0.001535 1.658e-05 0)
(0.00153906 1.89553e-05 0)
(0.00154371 2.16498e-05 0)
(0.001549 2.47121e-05 0)
(0.00155504 2.81985e-05 0)
(0.00156192 3.21745e-05 0)
(0.00156975 3.6716e-05 0)
(0.00157868 4.19128e-05 0)
(0.00158884 4.78685e-05 0)
(0.00160043 5.47095e-05 0)
(0.00161364 6.25777e-05 0)
(0.00162872 7.16581e-05 0)
(0.0016459 8.21429e-05 0)
(0.00166558 9.43196e-05 0)
(0.00168798 0.000108435 0)
(0.00171378 0.000124977 0)
(0.00174304 0.000144219 0)
(0.00177704 0.000167069 0)
(0.0018154 0.000193698 0)
(0.00186047 0.000225938 0)