/*--------------------------------*- C++ -*----------------------------------*\
| =========                 |                                                 |
| \\      /  F ield         | foam-extend: Open Source CFD                    |
|  \\    /   O peration     | Version:     4.0                                |
|   \\  /    A nd           | Web:         http://www.foam-extend.org         |
|    \\/     M anipulation  |                                                 |
\*---------------------------------------------------------------------------*/
FoamFile
{
    version     2.0;
    format      ascii;
    class       regIOobject;
    location    "0.0006/uniform";
    object      profilingInfo;
}
// * * * * * * * * * * * * * * * * * * * * * * * * * * * * * * * * * * * * * //

profilingInfo
(

    {
        id              17;
        parentId        15;
        description     "Foam::Time::writeObject - outputTime";
        calls           6;
        totalTime       0.857508;
        childTime       0;
        onStack         1;
    }

    {
        id              15;
        parentId        1;
        description     "Foam::Time::writeObject";
        calls           73;
        totalTime       0.857879;
        childTime       0.857508;
        onStack         1;
    }

    {
        id              1;
        description     "application::main";
        calls           1;
        totalTime       10.2848;
        childTime       5.07614;
        onStack         1;
    }

    {
        id              5;
        parentId        4;
        description     "functionObjectList::read";
        calls           1;
        totalTime       2e-06;
        childTime       0;
        onStack         0;
    }

    {
        id              16;
        parentId        1;
        description     "functionObjects_.execute()";
        calls           72;
        totalTime       0.000231;
        childTime       0;
        onStack         0;
    }

    {
        id              4;
        parentId        1;
        description     "functionObjects_.start()";
        calls           1;
        totalTime       8e-06;
        childTime       2e-06;
        onStack         0;
    }

    {
        id              6;
        parentId        1;
        description     "fvMatrix::solve_alpha1";
        calls           73;
        totalTime       0.122178;
        childTime       0.099959;
        onStack         0;
    }

    {
        id              13;
        parentId        1;
        description     "fvMatrix::solve_k";
        calls           73;
        totalTime       0.599062;
        childTime       0.579239;
        onStack         0;
    }

    {
        id              11;
        parentId        1;
        description     "fvMatrix::solve_omega";
        calls           73;
        totalTime       0.589197;
        childTime       0.548813;
        onStack         0;
    }

    {
        id              2;
        parentId        1;
        description     "fvMatrix::solve_pcorr";
        calls           1;
        totalTime       0.006152;
        childTime       0.005833;
        onStack         0;
    }

    {
        id              8;
        parentId        1;
        description     "fvMatrix::solve_pd";
        calls           73;
        totalTime       2.90143;
        childTime       2.88658;
        onStack         0;
    }

    {
        id              7;
        parentId        6;
        description     "lduMatrix::solver_alpha1";
        calls           73;
        totalTime       0.099959;
        childTime       0;
        onStack         0;
    }

    {
        id              10;
        parentId        9;
        description     "lduMatrix::solver_coarsestLevelCorr";
        calls           536;
        totalTime       0.172623;
        childTime       0;
        onStack         0;
    }

    {
        id              14;
        parentId        13;
        description     "lduMatrix::solver_k";
        calls           73;
        totalTime       0.579239;
        childTime       0;
        onStack         0;
    }

    {
        id              12;
        parentId        11;
        description     "lduMatrix::solver_omega";
        calls           73;
        totalTime       0.548813;
        childTime       0;
        onStack         0;
    }

    {
        id              3;
        parentId        2;
        description     "lduMatrix::solver_pcorr";
        calls           1;
        totalTime       0.005833;
        childTime       0;
        onStack         0;
    }

    {
        id              9;
        parentId        8;
        description     "lduMatrix::solver_pd";
        calls           73;
        totalTime       2.88658;
        childTime       0.172623;
        onStack         0;
    }
);


// ************************************************************************* //
