/*--------------------------------*- C++ -*----------------------------------*\
| =========                 |                                                 |
| \\      /  F ield         | foam-extend: Open Source CFD                    |
|  \\    /   O peration     | Version:     4.0                                |
|   \\  /    A nd           | Web:         http://www.foam-extend.org         |
|    \\/     M anipulation  |                                                 |
\*---------------------------------------------------------------------------*/
FoamFile
{
    version     2.0;
    format      ascii;
    class       volScalarField;
    location    "0.0001";
    object      k;
}
// * * * * * * * * * * * * * * * * * * * * * * * * * * * * * * * * * * * * * //

dimensions      [0 2 -2 0 0 0 0];

internalField   nonuniform List<scalar> 
28770
(
0.00021746
0.000485247
0.000656248
0.000783181
0.000867495
0.000920529
0.000952179
0.000970088
0.000979711
0.000984633
0.000987032
0.000988149
0.000988645
0.000988856
0.000988941
0.000988973
0.000988983
0.000988981
0.000988985
0.000988988
0.000988984
0.000988984
0.000988984
0.000988981
0.000988981
0.000988977
0.000988978
0.000988972
0.000988969
0.000988961
0.000988943
0.000988905
0.000988818
0.000988617
0.000988165
0.000987169
0.000985042
0.000980659
0.000971987
0.000955589
0.00092615
0.000876374
0.000797929
0.000684288
0.000535839
0.000365784
0.000202165
7.93245e-05
1.70101e-05
1.46163e-06
0.00649936
0.0143846
0.0194306
0.0231403
0.0256166
0.0271754
0.0281055
0.0286318
0.0289147
0.0290596
0.0291302
0.0291632
0.0291779
0.0291841
0.0291867
0.0291876
0.0291879
0.0291879
0.029188
0.0291881
0.029188
0.029188
0.029188
0.0291879
0.0291879
0.0291878
0.0291878
0.0291876
0.0291875
0.0291873
0.0291868
0.0291856
0.029183
0.0291771
0.0291637
0.0291341
0.0290711
0.0289413
0.0286845
0.0281992
0.027328
0.0258553
0.0235345
0.020172
0.0157781
0.010742
0.00589472
0.00226076
0.00043882
1.91424e-05
0.0404513
0.0948741
0.129114
0.153377
0.169584
0.179805
0.185907
0.189363
0.191223
0.192177
0.192645
0.192864
0.192961
0.193003
0.193021
0.193027
0.193029
0.193029
0.19303
0.19303
0.19303
0.19303
0.193029
0.193029
0.193029
0.193029
0.193029
0.193028
0.193027
0.193025
0.193022
0.193014
0.192996
0.192956
0.192864
0.192663
0.192235
0.191355
0.189617
0.186341
0.180475
0.17058
0.15502
0.132514
0.103139
0.0695052
0.0372348
0.0134188
0.00224461
8.16957e-05
0.117642
0.294848
0.409612
0.488195
0.540128
0.572815
0.592343
0.603421
0.609401
0.61248
0.613994
0.614706
0.615028
0.615167
0.615224
0.615246
0.615254
0.615255
0.615256
0.615257
0.615256
0.615256
0.615255
0.615254
0.615254
0.615253
0.615251
0.61525
0.615246
0.615241
0.615229
0.615203
0.615142
0.615001
0.614686
0.613994
0.612526
0.609523
0.603627
0.592573
0.572908
0.539964
0.488525
0.414682
0.319124
0.210975
0.109292
0.0372593
0.005828
0.000201053
0.231015
0.606901
0.863779
1.03822
1.15244
1.22402
1.26677
1.29107
1.30423
1.31103
1.3144
1.31599
1.31671
1.31703
1.31716
1.31721
1.31723
1.31723
1.31724
1.31724
1.31724
1.31723
1.31723
1.31723
1.31723
1.31723
1.31723
1.31722
1.31722
1.3172
1.31718
1.31711
1.31696
1.31662
1.31586
1.3142
1.31069
1.30356
1.28968
1.26387
1.2184
1.14308
1.02694
0.862642
0.653765
0.422807
0.212596
0.0700597
0.0106899
0.000362326
0.361687
0.973554
1.41429
1.71746
1.91603
2.04032
2.11455
2.15684
2.17982
2.19176
2.19769
2.20052
2.20182
2.20239
2.20263
2.20272
2.20276
2.20277
2.20277
2.20277
2.20277
2.20277
2.20277
2.20277
2.20277
2.20276
2.20276
2.20275
2.20274
2.20272
2.20267
2.20254
2.20226
2.2016
2.20014
2.19696
2.1903
2.17688
2.15097
2.10336
2.02052
1.88526
1.6801
1.3953
1.04123
0.660245
0.32466
0.104948
0.0158655
0.00053458
0.490801
1.32832
1.95827
2.40133
2.69413
2.87807
2.98826
3.05123
3.0856
3.10355
3.11252
3.11683
3.11881
3.11969
3.12007
3.12022
3.12028
3.1203
3.1203
3.1203
3.12031
3.1203
3.1203
3.1203
3.1203
3.12029
3.12029
3.12028
3.12026
3.12022
3.12014
3.11994
3.11947
3.1184
3.11602
3.11088
3.10018
3.07882
3.03804
2.96401
2.83704
2.63291
2.32858
1.914
1.4095
0.879863
0.425901
0.136134
0.0205047
0.000689698
0.604366
1.62729
2.42097
2.9912
3.37374
3.61595
3.76189
3.84571
3.89169
3.91583
3.92797
3.93384
3.93657
3.93778
3.9383
3.93852
3.9386
3.93863
3.93864
3.93865
3.93864
3.93864
3.93864
3.93864
3.93864
3.93863
3.93863
3.93862
3.93859
3.93854
3.93842
3.93813
3.93746
3.93592
3.93251
3.9252
3.91012
3.8803
3.82399
3.72303
3.55221
3.28154
2.88398
2.35086
1.71329
1.05707
0.506165
0.160678
0.0241636
0.000812557
0.695532
1.85596
2.77131
3.44254
3.90076
4.1934
4.37095
4.47353
4.53013
4.56001
4.57514
4.58249
4.58593
4.58747
4.58814
4.58842
4.58853
4.58857
4.58859
4.58859
4.58859
4.58859
4.58859
4.58858
4.58858
4.58858
4.58857
4.58856
4.58853
4.58846
4.5883
4.58793
4.58705
4.58506
4.58067
4.57132
4.55215
4.51457
4.4443
4.31965
4.11113
3.78448
3.31009
2.68134
1.93919
1.18655
0.564044
0.178279
0.0267918
0.000901138
0.762456
2.01694
3.01547
3.75943
4.27409
4.60585
4.80855
4.9264
4.99179
5.0265
5.04416
5.0528
5.05686
5.05869
5.0595
5.05983
5.05997
5.06002
5.06004
5.06004
5.06004
5.06004
5.06004
5.06004
5.06004
5.06003
5.06002
5.06001
5.05997
5.05989
5.0597
5.05926
5.05822
5.05585
5.05066
5.03963
5.01719
4.97344
4.89224
4.74934
4.51216
4.14344
3.61192
2.91308
2.09576
1.27534
0.603451
0.190237
0.0285823
0.000961742
0.807838
2.12335
3.17615
3.96734
4.52002
4.87973
5.10075
5.22995
5.30199
5.34041
5.36006
5.36971
5.37427
5.37634
5.37725
5.37764
5.37779
5.37785
5.37788
5.37788
5.37788
5.37788
5.37788
5.37788
5.37787
5.37787
5.37786
5.37784
5.37779
5.3777
5.37749
5.37699
5.37584
5.37322
5.36748
5.35535
5.33071
5.28288
5.19445
5.03947
4.78328
4.38641
3.81631
3.07015
2.20218
1.33607
0.630647
0.198561
0.0298387
0.00100475
0.836501
2.19
3.27685
4.0955
4.67198
5.05066
5.28411
5.42113
5.49782
5.53888
5.55995
5.57033
5.57526
5.57751
5.5785
5.57892
5.57909
5.57916
5.57919
5.57919
5.5792
5.57919
5.57919
5.57919
5.57918
5.57917
5.57916
5.57913
5.57908
5.57897
5.57874
5.57821
5.577
5.57427
5.56829
5.55567
5.53005
5.48039
5.38866
5.22799
4.96232
4.55028
3.95738
3.18193
2.28104
1.38326
0.6528
0.205568
0.0309071
0.00104205
0.853491
2.22955
3.33637
4.17062
4.76125
5.15163
5.39293
5.53496
5.61468
5.65747
5.67949
5.69038
5.69556
5.69793
5.69898
5.69942
5.69961
5.69968
5.69971
5.69972
5.69972
5.69972
5.69971
5.69971
5.69969
5.69968
5.69965
5.69961
5.69955
5.69942
5.69918
5.69863
5.69742
5.6947
5.68878
5.67627
5.65091
5.60172
5.51076
5.35103
5.08579
4.67154
4.06926
3.27831
2.35597
1.43295
0.678438
0.21421
0.0322129
0.00108458
0.863022
2.2519
3.36996
4.21281
4.81127
5.20837
5.45433
5.59938
5.68095
5.72482
5.74745
5.75865
5.76399
5.76644
5.76753
5.76799
5.76818
5.76826
5.76829
5.7683
5.7683
5.76829
5.76829
5.76827
5.76825
5.76823
5.76818
5.76812
5.76803
5.76787
5.7676
5.76705
5.76586
5.76326
5.75763
5.74578
5.7218
5.67532
5.5893
5.43771
5.1841
4.78282
4.18389
3.38909
2.45287
1.50513
0.720237
0.229951
0.0347625
0.00116319
0.868141
2.26401
3.38819
4.23562
4.83815
5.23891
5.48752
5.63432
5.71698
5.7615
5.78448
5.79588
5.80132
5.80382
5.80493
5.8054
5.8056
5.80568
5.80571
5.80571
5.80571
5.80571
5.80569
5.80567
5.80564
5.80559
5.80551
5.80541
5.80527
5.80507
5.80475
5.80417
5.80302
5.80058
5.79538
5.78454
5.76276
5.72084
5.64369
5.50777
5.27787
4.90344
4.31916
3.53169
2.58872
1.61554
0.791446
0.260961
0.0406861
0.00131082
0.87082
2.27042
3.39787
4.24772
4.85218
5.2548
5.50496
5.65276
5.73606
5.78095
5.80415
5.81567
5.82117
5.8237
5.82483
5.82531
5.82551
5.82559
5.82561
5.82562
5.82562
5.82561
5.82558
5.82555
5.82549
5.8254
5.82528
5.82511
5.82489
5.8246
5.82419
5.82356
5.82241
5.82011
5.81533
5.80552
5.78609
5.74943
5.68363
5.57015
5.44032
5.07939
4.55346
3.82505
2.91937
1.93278
1.03867
0.403068
0.0865715
0.00402837
0.87225
2.27386
3.40314
4.25439
4.85949
5.26298
5.5142
5.66263
5.74631
5.79145
5.81478
5.82637
5.83191
5.83447
5.8356
5.83609
5.83629
5.83637
5.83639
5.8364
5.83639
5.83637
5.83633
5.83627
5.83618
5.83603
5.83583
5.83556
5.83521
5.83477
5.83422
5.83347
5.83226
5.83
5.82547
5.81628
5.7983
5.76509
5.70741
5.60688
5.43719
5.12689
4.60535
3.89349
2.99091
1.9855
1.07108
0.419879
0.0906787
0.00395911
0.873092
2.27591
3.40633
4.25852
4.86359
5.26748
5.51955
5.66843
5.75239
5.7977
5.82113
5.83278
5.83836
5.84092
5.84206
5.84255
5.84276
5.84283
5.84286
5.84286
5.84285
5.84281
5.84276
5.84266
5.8425
5.84227
5.84195
5.84152
5.84098
5.84033
5.83956
5.83861
5.83726
5.83493
5.83039
5.82121
5.80301
5.76871
5.70765
5.59506
5.39145
5.0679
4.54495
3.84097
2.93077
1.90848
1.01091
0.394675
0.0851245
0.00367956
0.87369
2.27735
3.40863
4.26156
4.86637
5.2705
5.52331
5.67259
5.7568
5.80226
5.82579
5.8375
5.8431
5.84568
5.84683
5.84732
5.84752
5.8476
5.84762
5.84762
5.8476
5.84755
5.84745
5.8473
5.84707
5.84671
5.84622
5.84556
5.84474
5.84379
5.84272
5.8415
5.83992
5.83743
5.83277
5.8234
5.8046
5.76852
5.70324
5.58194
5.37583
5.02245
4.49687
3.78289
2.84114
1.57819
0.783782
0.291213
0.0566195
0.00171456
0.874209
2.2786
3.41062
4.26421
4.86879
5.27314
5.52665
5.67631
5.76079
5.80641
5.83004
5.8418
5.84744
5.85004
5.85119
5.85169
5.85189
5.85197
5.85199
5.85198
5.85194
5.85187
5.85173
5.85151
5.85116
5.85064
5.84991
5.84894
5.84776
5.84641
5.84495
5.84338
5.84152
5.83883
5.83404
5.82457
5.80556
5.76898
5.70298
5.58207
5.38176
5.02
4.49439
3.77289
2.80711
1.54363
0.773804
0.286413
0.0569969
0.00181966
0.874717
2.2798
3.41253
4.26676
4.87123
5.27585
5.53
5.68008
5.76484
5.81065
5.8344
5.84623
5.8519
5.85451
5.85568
5.85618
5.85639
5.85646
5.85648
5.85646
5.85641
5.8563
5.85611
5.8558
5.8553
5.85457
5.85353
5.85218
5.85054
5.84871
5.84678
5.8448
5.84263
5.83972
5.83483
5.82538
5.80653
5.77033
5.70538
5.58736
5.39168
5.03473
4.51445
3.79472
2.82454
1.56479
0.783244
0.291384
0.0591516
0.0018941
0.87523
2.28098
3.41438
4.26925
4.87374
5.27865
5.53339
5.68389
5.76896
5.81498
5.83886
5.85077
5.85648
5.85913
5.8603
5.86081
5.86102
5.86109
5.8611
5.86107
5.861
5.86086
5.86061
5.86019
5.85952
5.85852
5.85713
5.85532
5.85316
5.85078
5.84835
5.84596
5.84347
5.84036
5.83541
5.82605
5.80758
5.77218
5.70877
5.59348
5.40046
5.04983
4.53681
3.82397
2.85587
1.5871
0.801189
0.305624
0.064722
0.0021477
0.875757
2.28217
3.41617
4.2716
4.8762
5.28135
5.53656
5.68746
5.77284
5.81909
5.84312
5.85511
5.86088
5.86354
5.86473
5.86525
5.86545
5.86553
5.86553
5.8655
5.8654
5.86522
5.8649
5.86437
5.86351
5.86223
5.86044
5.85815
5.85546
5.85255
5.84965
5.84686
5.84409
5.84082
5.83583
5.82662
5.80857
5.77405
5.71223
5.59951
5.4098
5.06421
4.55912
3.85477
2.89191
1.62307
0.830824
0.326563
0.0662725
0.00418731
0.876329
2.28341
3.418
4.27394
4.87871
5.28395
5.53941
5.69062
5.77629
5.82274
5.84691
5.85899
5.8648
5.8675
5.8687
5.86922
5.86943
5.8695
5.8695
5.86946
5.86934
5.86913
5.86875
5.8681
5.86706
5.86551
5.86336
5.86063
5.85749
5.85414
5.85084
5.84774
5.84475
5.84135
5.83635
5.8273
5.80968
5.77601
5.71575
5.60579
5.42007
5.08019
4.58232
3.88445
2.92556
1.65734
0.865394
0.353238
0.0776339
0.00541574
0.877061
2.28501
3.42036
4.27687
4.88188
5.28703
5.54244
5.6938
5.77963
5.82622
5.85047
5.86261
5.86846
5.87117
5.87238
5.8729
5.87312
5.87319
5.87319
5.87313
5.87301
5.87277
5.87233
5.8716
5.87042
5.86867
5.86626
5.86326
5.85981
5.85616
5.8526
5.8493
5.84617
5.84271
5.83772
5.82882
5.81156
5.77864
5.71967
5.61184
5.42861
5.09584
4.60299
3.90735
2.94736
1.67046
0.898896
0.385378
0.125491
0.0136859
0.876988
2.28499
3.42058
4.27743
4.88268
5.28771
5.54302
5.69443
5.78034
5.82699
5.85129
5.86345
5.86931
5.87203
5.87324
5.87377
5.87398
5.87405
5.87405
5.87399
5.87386
5.87361
5.87316
5.87238
5.87115
5.86931
5.86683
5.86374
5.86019
5.85645
5.85281
5.84945
5.84627
5.84278
5.83781
5.82896
5.81186
5.77928
5.72093
5.61403
5.43037
5.10426
4.61341
3.9172
2.95578
1.68474
0.913271
0.404142
0.144032
0.0261535
0.876645
2.28431
3.41974
4.27653
4.88174
5.2869
5.54228
5.6936
5.7794
5.82597
5.85021
5.86233
5.86817
5.87088
5.87209
5.87261
5.87282
5.87289
5.87289
5.87284
5.87271
5.87246
5.87202
5.87127
5.87007
5.8683
5.86589
5.8629
5.85947
5.85586
5.85234
5.84905
5.84593
5.84247
5.83749
5.82861
5.81141
5.77864
5.71986
5.61194
5.42463
5.10097
4.60826
3.90921
2.94434
1.66997
0.898615
0.389479
0.127615
0.0156068
0.875886
2.28267
3.41739
4.27367
4.87869
5.28396
5.53934
5.6905
5.77612
5.82255
5.84669
5.85875
5.86455
5.86724
5.86844
5.86896
5.86917
5.86924
5.86924
5.86919
5.86908
5.86886
5.86846
5.86778
5.86669
5.86508
5.86291
5.8602
5.85709
5.85379
5.85054
5.84747
5.8445
5.84112
5.83613
5.82712
5.80957
5.77605
5.71595
5.60566
5.41401
5.08728
4.58951
3.88517
2.91421
1.63511
0.864383
0.356201
0.101495
0.00565138
0.875609
2.28193
3.41606
4.27173
4.87646
5.28158
5.53668
5.68755
5.7729
5.81912
5.84312
5.8551
5.86086
5.86352
5.86471
5.86522
5.86543
5.8655
5.86551
5.86547
5.86538
5.86519
5.86486
5.8643
5.8634
5.86205
5.86021
5.85791
5.85525
5.8524
5.84955
5.8468
5.84405
5.84079
5.83582
5.82664
5.80865
5.77418
5.7123
5.59902
5.4036
5.07039
4.56554
3.8536
2.87563
1.59542
0.827825
0.326985
0.0864842
0.00423228
0.875212
2.28098
3.41448
4.26946
4.87394
5.27881
5.53345
5.68396
5.76901
5.81501
5.83888
5.85078
5.85649
5.85913
5.86031
5.86081
5.86102
5.86109
5.8611
5.86108
5.861
5.86086
5.86059
5.86016
5.85946
5.85842
5.85697
5.85514
5.85299
5.85065
5.84826
5.8459
5.84343
5.84034
5.83538
5.82604
5.80758
5.77217
5.70857
5.59258
5.39493
5.05516
4.54257
3.82189
2.83757
1.55925
0.795538
0.304487
0.0655041
0.0022305
0.874731
2.27985
3.41269
4.26695
4.87131
5.2759
5.52997
5.68009
5.76485
5.81066
5.8344
5.84622
5.85189
5.85451
5.85568
5.85618
5.85638
5.85646
5.85648
5.85646
5.8564
5.85629
5.8561
5.85577
5.85526
5.85449
5.85343
5.85205
5.85041
5.84859
5.84669
5.84473
5.84256
5.83965
5.83474
5.82525
5.80638
5.77014
5.70509
5.58682
5.38588
5.04146
4.52134
3.79291
2.80503
1.53405
0.77366
0.287783
0.0584348
0.001874
0.874229
2.27866
3.4108
4.26436
4.86873
5.27311
5.52654
5.67627
5.76077
5.8064
5.83003
5.84179
5.84743
5.85003
5.85118
5.85168
5.85189
5.85196
5.85198
5.85197
5.85194
5.85186
5.85172
5.85149
5.85113
5.85059
5.84983
5.84885
5.84766
5.84632
5.84487
5.8433
5.84142
5.83869
5.83383
5.82424
5.80507
5.76826
5.70212
5.58144
5.37657
5.02591
4.49953
3.76755
2.78167
1.51821
0.767656
0.284034
0.0563268
0.00178488
0.873702
2.2774
3.40881
4.26164
4.86618
5.27038
5.52315
5.6725
5.75675
5.80223
5.82577
5.83748
5.84308
5.84567
5.84682
5.84731
5.84752
5.8476
5.84762
5.84762
5.84759
5.84754
5.84745
5.84729
5.84705
5.84668
5.84617
5.8455
5.84468
5.84372
5.84265
5.84142
5.8398
5.83723
5.83241
5.82277
5.8035
5.76663
5.70063
5.57989
5.37452
5.01377
4.48413
3.75783
2.78919
1.52804
0.759786
0.281097
0.0546959
0.00164292
0.873091
2.27591
3.40646
4.25851
4.86327
5.26728
5.51933
5.66829
5.75231
5.79764
5.8211
5.83276
5.83834
5.84092
5.84206
5.84255
5.84276
5.84284
5.84286
5.84286
5.84285
5.84282
5.84276
5.84266
5.8425
5.84226
5.84193
5.84148
5.84093
5.84028
5.8395
5.83853
5.83711
5.83465
5.82986
5.82018
5.80099
5.76482
5.70129
5.58686
5.40598
5.0278
4.5009
3.79017
2.86426
1.82008
0.945558
0.366998
0.0788837
0.00340375
0.872242
2.27383
3.4032
4.25429
4.85908
5.26269
5.51394
5.66245
5.74619
5.79137
5.81474
5.82635
5.83191
5.83447
5.83561
5.8361
5.8363
5.83638
5.83641
5.83641
5.83641
5.83639
5.83635
5.83629
5.83619
5.83604
5.83583
5.83555
5.83519
5.83475
5.83418
5.83339
5.8321
5.82969
5.82484
5.81503
5.79584
5.76063
5.70169
5.60402
5.45383
5.0968
4.57246
3.86808
2.96778
1.96089
1.0526
0.411517
0.0885584
0.00383245
0.87084
2.27038
3.39786
4.24756
4.85173
5.2544
5.50463
5.65252
5.73589
5.78085
5.80409
5.81565
5.82117
5.82372
5.82485
5.82534
5.82554
5.82562
5.82565
5.82566
5.82565
5.82564
5.82562
5.82558
5.82552
5.82543
5.8253
5.82513
5.8249
5.8246
5.82417
5.8235
5.82227
5.81982
5.81477
5.80453
5.78468
5.74881
5.69017
5.59562
5.42639
5.13566
4.61563
3.89679
2.99206
1.98938
1.07316
0.418751
0.0900257
0.00394332
0.868273
2.26412
3.38823
4.23547
4.83774
5.23843
5.48713
5.63402
5.71676
5.76136
5.7844
5.79585
5.80133
5.80385
5.80497
5.80545
5.80565
5.80574
5.80577
5.80577
5.80577
5.80577
5.80576
5.80573
5.8057
5.80565
5.80557
5.80546
5.80531
5.8051
5.80476
5.80415
5.80293
5.80037
5.79498
5.78396
5.76244
5.72335
5.65943
5.55885
5.34359
4.94912
4.36401
3.57107
2.61636
1.62787
0.79315
0.260091
0.0404227
0.00130066
0.863434
2.25246
3.37032
4.21288
4.81102
5.20791
5.45393
5.59904
5.68069
5.72465
5.74735
5.75862
5.76401
5.76649
5.76759
5.76807
5.76826
5.76834
5.76837
5.76838
5.76838
5.76838
5.76838
5.76836
5.76834
5.76831
5.76827
5.7682
5.7681
5.76795
5.76766
5.76708
5.76584
5.76316
5.7574
5.74544
5.72154
5.67626
5.59666
5.46471
5.22954
4.82992
4.23318
3.43491
2.48763
1.525
0.728218
0.232357
0.0352844
0.00118957
0.854445
2.23107
3.33753
4.17121
4.76145
5.1514
5.39264
5.53463
5.61438
5.65725
5.67936
5.69032
5.69555
5.69796
5.69904
5.6995
5.69969
5.69977
5.6998
5.69981
5.69981
5.69981
5.6998
5.6998
5.69979
5.69977
5.69974
5.6997
5.69963
5.6995
5.69925
5.69869
5.69745
5.69469
5.68872
5.67622
5.65101
5.60247
5.51437
5.3632
5.10649
4.69605
4.09675
3.3049
2.37722
1.44636
0.684829
0.216427
0.0326346
0.00110018
0.838318
2.1931
3.27938
4.09705
4.67301
5.05093
5.28404
5.42084
5.49746
5.53854
5.55969
5.57015
5.57514
5.57744
5.57846
5.57889
5.57908
5.57915
5.57918
5.57919
5.57919
5.57919
5.57919
5.57919
5.57918
5.57917
5.57915
5.57912
5.57907
5.57897
5.57874
5.57821
5.57699
5.57426
5.5683
5.55575
5.53034
5.48107
5.39048
5.233
4.97076
4.56079
3.96926
3.19339
2.29025
1.38921
0.655717
0.206561
0.0310692
0.00104657
0.81078
2.12866
3.18078
3.97053
4.5222
4.8807
5.10094
5.22965
5.30145
5.33982
5.3595
5.36921
5.37383
5.37596
5.3769
5.3773
5.37747
5.37754
5.37757
5.37757
5.37758
5.37758
5.37758
5.37757
5.37757
5.37756
5.37755
5.37753
5.37749
5.3774
5.37719
5.37671
5.37557
5.37297
5.36727
5.35522
5.33073
5.28306
5.19492
5.0407
4.78519
4.38849
3.81834
3.07189
2.20352
1.33692
0.631047
0.198682
0.0298534
0.00100499
0.766476
2.02459
3.02247
3.76456
4.27731
4.60741
4.80885
4.92587
4.99082
5.02535
5.04299
5.05166
5.05578
5.05766
5.05849
5.05885
5.059
5.05906
5.05908
5.05909
5.05909
5.05909
5.05909
5.05909
5.05908
5.05908
5.05907
5.05905
5.05902
5.05895
5.05877
5.05834
5.05733
5.055
5.04985
5.03887
5.01642
4.97255
4.89099
4.74748
4.50932
4.13935
3.60695
2.90817
2.09195
1.27304
0.602353
0.189854
0.0285133
0.000959154
0.699856
1.86473
2.77955
3.44873
3.90442
4.19506
4.37097
4.47244
4.5284
4.55798
4.573
4.58036
4.58383
4.58541
4.58611
4.5864
4.58653
4.58658
4.58659
4.5866
4.5866
4.5866
4.5866
4.5866
4.58659
4.58659
4.58658
4.58657
4.58654
4.58649
4.58634
4.58599
4.58515
4.5832
4.57885
4.56948
4.55018
4.51218
4.44102
4.31489
4.10432
3.77553
3.29994
2.67193
1.93241
1.18288
0.562518
0.177778
0.0266931
0.00089686
0.60725
1.634
2.42779
2.99634
3.37666
3.61693
3.76116
3.84374
3.88897
3.91272
3.92471
3.93053
3.93327
3.93451
3.93506
3.93529
3.93538
3.93542
3.93543
3.93544
3.93544
3.93543
3.93543
3.93543
3.93543
3.93543
3.93542
3.93541
3.93539
3.93534
3.93524
3.93497
3.93433
3.93283
3.92944
3.92207
3.90676
3.87632
3.81881
3.7159
3.54252
3.26942
2.87092
2.3396
1.70627
1.05441
0.505766
0.160656
0.0241225
0.000808847
0.489591
1.32788
1.95976
2.40284
2.69491
2.87763
2.98647
3.04833
3.08196
3.0995
3.10828
3.11253
3.1145
3.11539
3.11578
3.11595
3.11601
3.11604
3.11605
3.11605
3.11605
3.11605
3.11605
3.11604
3.11604
3.11604
3.11603
3.11602
3.11601
3.11598
3.11591
3.11572
3.11528
3.11424
3.11186
3.10663
3.09566
3.07364
3.03161
2.95563
2.82624
2.62009
2.31567
1.90427
1.40559
0.881166
0.428666
0.137442
0.0206567
0.000690255
0.354387
0.962334
1.40791
1.71408
1.91396
2.03819
2.11173
2.15324
2.17564
2.18722
2.19298
2.19574
2.19701
2.19758
2.19783
2.19793
2.19798
2.19799
2.198
2.198
2.19799
2.19799
2.19799
2.19799
2.19799
2.19799
2.19798
2.19798
2.19797
2.19795
2.1979
2.19779
2.19753
2.19689
2.19542
2.19216
2.18525
2.17127
2.14433
2.09516
2.01054
1.87415
1.67002
1.38965
1.04264
0.66739
0.332078
0.108353
0.0163574
0.000543808
0.218947
0.587908
0.852016
1.03156
1.1484
1.22081
1.26345
1.28735
1.30014
1.30669
1.30992
1.31146
1.31216
1.31247
1.31261
1.31266
1.31268
1.31269
1.31269
1.31269
1.31269
1.31269
1.31269
1.31269
1.31269
1.31269
1.31268
1.31268
1.31268
1.31267
1.31264
1.31259
1.31245
1.31212
1.31135
1.30963
1.30595
1.29844
1.28386
1.25706
1.21056
1.13492
1.02045
0.860874
0.659143
0.434013
0.223601
0.0753888
0.0115557
0.000382633
0.106083
0.277583
0.398984
0.481937
0.536159
0.569728
0.589397
0.600339
0.606144
0.609093
0.610534
0.611212
0.611521
0.611657
0.611716
0.611739
0.611749
0.611751
0.611752
0.611752
0.611752
0.611752
0.611751
0.61175
0.611749
0.611748
0.611747
0.611746
0.611743
0.611739
0.611729
0.611706
0.61165
0.611514
0.611194
0.610472
0.608914
0.605713
0.599462
0.587904
0.567759
0.534835
0.484719
0.414293
0.324038
0.220675
0.11938
0.0426382
0.00681138
0.000227353
0.0344353
0.0865946
0.124035
0.150118
0.167291
0.177915
0.184112
0.187539
0.189344
0.190255
0.190697
0.190904
0.190998
0.191039
0.191056
0.191063
0.191066
0.191067
0.191067
0.191067
0.191067
0.191067
0.191066
0.191066
0.191066
0.191066
0.191065
0.191065
0.191064
0.191063
0.19106
0.191054
0.191038
0.190999
0.190907
0.190696
0.190238
0.18929
0.187428
0.183973
0.177934
0.168051
0.153004
0.131875
0.104802
0.0735894
0.0420841
0.0163791
0.00286146
9.90357e-05
0.00530511
0.0128384
0.0184348
0.022394
0.025012
0.0266333
0.0275787
0.0281007
0.0283753
0.0285135
0.0285804
0.0286117
0.0286258
0.028632
0.0286346
0.0286357
0.0286361
0.0286362
0.0286361
0.0286361
0.0286361
0.0286361
0.0286361
0.0286361
0.028636
0.028636
0.0286359
0.0286358
0.0286357
0.0286356
0.0286352
0.0286343
0.0286321
0.0286266
0.0286134
0.0285828
0.0285154
0.0283748
0.0280971
0.0275799
0.0266744
0.0251919
0.0229379
0.0197858
0.0157835
0.0112342
0.00667532
0.00282977
0.000573898
2.19172e-05
0.000178455
0.000431636
0.000619315
0.000752404
0.000840702
0.000895552
0.000927615
0.000945358
0.000954705
0.000959416
0.000961698
0.000962764
0.000963246
0.000963457
0.000963546
0.000963583
0.000963598
0.000963602
0.000963601
0.000963601
0.000963599
0.000963599
0.000963597
0.000963597
0.000963596
0.000963595
0.000963592
0.00096359
0.000963587
0.000963582
0.000963571
0.000963544
0.000963476
0.000963301
0.00096287
0.000961859
0.000959608
0.00095487
0.000945452
0.000927832
0.000896911
0.000846238
0.000769166
0.000661433
0.000525168
0.000372343
0.000222833
9.76979e-05
2.16935e-05
1.43439e-06
0.000102191
2.81147e-06
1.52352e-07
8.69772e-09
5.26645e-10
5.13711e-11
3.56898e-11
3.51959e-11
3.51852e-11
3.51853e-11
3.51851e-11
3.51854e-11
3.51866e-11
3.52234e-11
1.03576e-11
1.92813e-10
2.84116e-09
5.12292e-08
9.67327e-07
2.03796e-05
0.00221267
0.000131551
7.50136e-06
4.28357e-07
2.55077e-08
1.53348e-09
2.16295e-10
1.93414e-10
1.93032e-10
1.93028e-10
1.93014e-10
1.93013e-10
1.93055e-10
1.99853e-10
7.5074e-10
1.54691e-08
2.79593e-07
5.2022e-06
9.71035e-05
0.00178161
0.000636573
2.914e-05
1.62665e-06
9.37464e-08
5.54817e-09
3.40289e-10
4.82339e-12
2.76874e-12
2.7338e-12
2.73346e-12
2.73202e-12
2.73173e-12
2.74799e-12
3.9197e-12
2.01981e-10
3.5526e-09
6.07004e-08
1.12468e-06
2.12431e-05
0.000435883
1.48497e-06
2.2459e-05
0.000102128
0.000236432
0.000395663
0.000553507
0.000690778
0.000797775
0.000873729
0.000923449
0.000953735
0.000971016
0.000980297
0.000985005
0.000987268
0.000988299
0.000988745
0.000988926
0.000988995
0.000989019
0.000989022
0.000989023
0.000989022
0.000989023
0.00098902
0.00098902
0.000989019
0.000989016
0.000989016
0.000989014
0.000989013
0.000989012
0.00098901
0.00098901
0.000989008
0.000989009
0.000989007
0.000989006
0.000989006
0.000989004
0.000989004
0.000989003
0.000989003
0.000989003
0.000989001
0.000989002
0.000989001
0.000989
0.000988999
0.000988997
0.000988995
0.000988996
0.000988993
0.000988992
0.000988993
0.000988992
0.000988992
0.000988992
0.000988992
0.000988992
0.000988993
0.000988992
0.000988993
0.000988992
0.000988993
0.000988992
0.000988993
0.000988993
0.000988993
0.000988993
0.000988992
0.000988994
0.000988992
0.000988992
0.000988993
0.000988994
0.000988993
0.000988992
0.000988994
0.000988993
0.000988993
0.000988993
0.000988993
0.000988995
0.000988992
0.000988992
0.000988995
0.000988992
0.000988995
0.000989001
0.000989009
0.000989031
0.000989089
0.000989231
0.000989571
0.00099036
0.000992098
0.000995621
0.00100172
0.00100899
2.26979e-05
0.000592198
0.00291627
0.00690535
0.0116416
0.0163195
0.0203779
0.0235384
0.0257815
0.0272499
0.0281446
0.0286554
0.02893
0.0290695
0.0291367
0.0291674
0.0291807
0.0291862
0.0291883
0.029189
0.0291891
0.0291891
0.0291891
0.0291891
0.029189
0.029189
0.029189
0.0291889
0.0291889
0.0291889
0.0291888
0.0291888
0.0291887
0.0291887
0.0291887
0.0291887
0.0291886
0.0291886
0.0291886
0.0291886
0.0291886
0.0291885
0.0291885
0.0291886
0.0291885
0.0291885
0.0291885
0.0291884
0.0291884
0.0291884
0.0291883
0.0291883
0.0291882
0.0291882
0.0291882
0.0291882
0.0291882
0.0291882
0.0291882
0.0291882
0.0291882
0.0291882
0.0291882
0.0291882
0.0291882
0.0291882
0.0291882
0.0291882
0.0291882
0.0291882
0.0291882
0.0291883
0.0291882
0.0291882
0.0291882
0.0291883
0.0291882
0.0291882
0.0291883
0.0291882
0.0291882
0.0291882
0.0291882
0.0291883
0.0291882
0.0291882
0.0291883
0.0291882
0.0291883
0.0291885
0.0291887
0.0291893
0.029191
0.0291952
0.0292052
0.0292282
0.0292793
0.0293835
0.0295666
0.029793
0.000103618
0.00294963
0.016746
0.0429047
0.0749234
0.106569
0.133893
0.155106
0.170144
0.179989
0.185992
0.189425
0.191276
0.192219
0.192676
0.192886
0.192978
0.193016
0.193031
0.193036
0.193037
0.193037
0.193037
0.193037
0.193037
0.193036
0.193037
0.193036
0.193036
0.193036
0.193036
0.193035
0.193035
0.193035
0.193035
0.193035
0.193034
0.193034
0.193034
0.193034
0.193034
0.193034
0.193034
0.193034
0.193034
0.193033
0.193033
0.193033
0.193033
0.193033
0.193032
0.193032
0.193032
0.193032
0.193031
0.193031
0.193031
0.193031
0.193031
0.193031
0.193031
0.193031
0.193031
0.193031
0.193031
0.193031
0.193031
0.193031
0.193031
0.193031
0.193031
0.193031
0.193031
0.193031
0.193031
0.193031
0.193031
0.193031
0.193031
0.193031
0.193031
0.193031
0.193031
0.193032
0.193031
0.193031
0.193032
0.193031
0.193032
0.193033
0.193034
0.193039
0.19305
0.193076
0.19314
0.193288
0.19362
0.194315
0.19561
0.197469
0.000241534
0.0070465
0.0434641
0.121066
0.223202
0.32723
0.417897
0.488481
0.538594
0.571455
0.591537
0.603053
0.609284
0.612476
0.61403
0.61475
0.615068
0.615202
0.615255
0.615274
0.61528
0.615281
0.61528
0.615281
0.61528
0.615279
0.615278
0.615278
0.615277
0.615276
0.615276
0.615275
0.615275
0.615275
0.615273
0.615273
0.615272
0.615273
0.615272
0.615272
0.615271
0.615271
0.615271
0.615271
0.615271
0.615271
0.615269
0.615269
0.615267
0.615266
0.615265
0.615263
0.615262
0.615261
0.61526
0.61526
0.61526
0.61526
0.61526
0.61526
0.61526
0.61526
0.615261
0.61526
0.615261
0.615261
0.61526
0.61526
0.615261
0.615261
0.615261
0.61526
0.615261
0.61526
0.615261
0.615261
0.61526
0.615261
0.61526
0.61526
0.615261
0.615261
0.615261
0.615261
0.615261
0.61526
0.615261
0.61526
0.615262
0.615265
0.61527
0.615283
0.615317
0.615398
0.615591
0.61604
0.617057
0.619272
0.623819
0.63207
0.00040722
0.0119763
0.0767351
0.226133
0.437641
0.663553
0.865731
1.02545
1.13988
1.21541
1.26181
1.28856
1.30311
1.31061
1.31428
1.316
1.31677
1.31709
1.31723
1.31727
1.31729
1.3173
1.3173
1.3173
1.31729
1.31729
1.31729
1.31729
1.31729
1.31729
1.31729
1.31729
1.31729
1.31729
1.31728
1.31728
1.31728
1.31728
1.31728
1.31728
1.31728
1.31728
1.31728
1.31728
1.31728
1.31728
1.31728
1.31727
1.31727
1.31726
1.31726
1.31725
1.31725
1.31725
1.31724
1.31724
1.31724
1.31724
1.31724
1.31724
1.31724
1.31724
1.31724
1.31725
1.31725
1.31724
1.31725
1.31724
1.31724
1.31724
1.31724
1.31725
1.31724
1.31724
1.31724
1.31724
1.31724
1.31724
1.31724
1.31724
1.31724
1.31725
1.31724
1.31725
1.31725
1.31724
1.31725
1.31724
1.31725
1.31725
1.31726
1.31729
1.31736
1.31752
1.3179
1.31878
1.32078
1.32525
1.33532
1.35817
0.000573954
0.0169179
0.110147
0.335271
0.671778
1.0478
1.39516
1.67556
1.87954
2.01575
2.10024
2.14934
2.17626
2.19024
2.19714
2.2004
2.20187
2.2025
2.20276
2.20286
2.20289
2.2029
2.20291
2.20291
2.20291
2.2029
2.2029
2.2029
2.2029
2.2029
2.2029
2.2029
2.2029
2.2029
2.2029
2.2029
2.20289
2.20289
2.20289
2.20289
2.20289
2.20289
2.20289
2.20289
2.20289
2.20288
2.20288
2.20288
2.20286
2.20285
2.20284
2.20282
2.20281
2.2028
2.20279
2.20279
2.20279
2.20278
2.20278
2.20279
2.20279
2.20279
2.20279
2.20279
2.20279
2.20279
2.20279
2.20279
2.20279
2.20279
2.20279
2.20279
2.20279
2.20279
2.20279
2.20279
2.20279
2.20279
2.20279
2.20279
2.20279
2.20279
2.20279
2.20279
2.20279
2.20279
2.20279
2.20279
2.20279
2.2028
2.20282
2.20286
2.20296
2.20321
2.20377
2.20504
2.20789
2.21436
2.22995
2.27317
0.000721556
0.0212806
0.139498
0.432246
0.88592
1.41097
1.90981
2.32103
2.62515
2.83103
2.96027
3.0362
3.07823
3.10026
3.11125
3.11649
3.11887
3.11991
3.12034
3.12051
3.12057
3.1206
3.1206
3.12061
3.12061
3.12061
3.12061
3.12061
3.12061
3.12061
3.12061
3.12061
3.12061
3.12061
3.12061
3.12061
3.12061
3.12061
3.12061
3.1206
3.1206
3.1206
3.1206
3.1206
3.1206
3.12059
3.12059
3.12057
3.12054
3.12051
3.12046
3.12042
3.12038
3.12035
3.12033
3.12032
3.12032
3.12032
3.12032
3.12032
3.12032
3.12032
3.12032
3.12032
3.12032
3.12032
3.12032
3.12032
3.12032
3.12032
3.12032
3.12032
3.12032
3.12032
3.12032
3.12032
3.12032
3.12032
3.12032
3.12032
3.12032
3.12032
3.12032
3.12032
3.12032
3.12032
3.12032
3.12032
3.12033
3.12034
3.12036
3.12041
3.12054
3.12083
3.1215
3.12296
3.12618
3.1334
3.1518
3.21354
0.000839211
0.0247543
0.162782
0.509426
1.05912
1.71138
2.34459
2.87548
3.2735
3.54629
3.71956
3.82251
3.88011
3.91063
3.926
3.9334
3.9368
3.9383
3.93893
3.93919
3.93929
3.93933
3.93934
3.93935
3.93935
3.93936
3.93936
3.93937
3.93937
3.93938
3.93938
3.93938
3.93938
3.93938
3.93938
3.93938
3.93938
3.93938
3.93938
3.93938
3.93938
3.93938
3.93938
3.93938
3.93937
3.93937
3.93935
3.93932
3.93925
3.93916
3.93905
3.93892
3.93882
3.93875
3.9387
3.93867
3.93866
3.93866
3.93866
3.93866
3.93866
3.93866
3.93866
3.93866
3.93866
3.93866
3.93866
3.93866
3.93866
3.93866
3.93866
3.93866
3.93866
3.93866
3.93866
3.93866
3.93866
3.93866
3.93866
3.93866
3.93866
3.93866
3.93866
3.93866
3.93866
3.93866
3.93866
3.93866
3.93867
3.93868
3.9387
3.93876