/*--------------------------------*- C++ -*----------------------------------*\
| =========                 |                                                 |
| \\      /  F ield         | foam-extend: Open Source CFD                    |
|  \\    /   O peration     | Version:     4.0                                |
|   \\  /    A nd           | Web:         http://www.foam-extend.org         |
|    \\/     M anipulation  |                                                 |
\*---------------------------------------------------------------------------*/
FoamFile
{
    version     2.0;
    format      ascii;
    class       volScalarField;
    location    "0.0001";
    object      nut;
}
// * * * * * * * * * * * * * * * * * * * * * * * * * * * * * * * * * * * * * //

dimensions      [0 2 -1 0 0 0 0];

internalField   nonuniform List<scalar> 
28770
(
1.1592e-11
2.58668e-11
3.49822e-11
4.17486e-11
4.6243e-11
4.90701e-11
5.07572e-11
5.17119e-11
5.22249e-11
5.24872e-11
5.26151e-11
5.26747e-11
5.27011e-11
5.27123e-11
5.27169e-11
5.27186e-11
5.27191e-11
5.2719e-11
5.27192e-11
5.27194e-11
5.27192e-11
5.27192e-11
5.27192e-11
5.2719e-11
5.2719e-11
5.27188e-11
5.27189e-11
5.27185e-11
5.27183e-11
5.27179e-11
5.2717e-11
5.27149e-11
5.27103e-11
5.26996e-11
5.26755e-11
5.26224e-11
5.2509e-11
5.22754e-11
5.18131e-11
5.0939e-11
4.93697e-11
4.67163e-11
4.25347e-11
3.64769e-11
2.85637e-11
1.94986e-11
1.07767e-11
4.2285e-12
9.06749e-13
7.79141e-14
2.40701e-09
4.51534e-09
6.01556e-09
7.15373e-09
7.91773e-09
8.39924e-09
8.68663e-09
8.84927e-09
8.93671e-09
8.98147e-09
9.00332e-09
9.0135e-09
9.01804e-09
9.01997e-09
9.02075e-09
9.02105e-09
9.02114e-09
9.02113e-09
9.02116e-09
9.02118e-09
9.02115e-09
9.02115e-09
9.02115e-09
9.02112e-09
9.02112e-09
9.02109e-09
9.02109e-09
9.02104e-09
9.021e-09
9.02093e-09
9.02077e-09
9.02041e-09
9.01961e-09
9.01777e-09
9.01363e-09
9.0045e-09
8.98502e-09
8.94489e-09
8.86552e-09
8.71549e-09
8.44621e-09
7.99098e-09
7.27355e-09
6.23399e-09
4.87519e-09
3.31656e-09
1.81206e-09
6.72424e-10
9.9028e-11
1.06423e-12
5.9535e-08
9.32836e-08
1.19044e-07
1.3965e-07
1.53979e-07
1.63146e-07
1.68648e-07
1.71772e-07
1.73455e-07
1.74319e-07
1.74742e-07
1.74941e-07
1.75029e-07
1.75067e-07
1.75083e-07
1.75089e-07
1.75091e-07
1.75091e-07
1.75091e-07
1.75092e-07
1.75091e-07
1.75091e-07
1.75091e-07
1.75091e-07
1.75091e-07
1.7509e-07
1.7509e-07
1.75089e-07
1.75088e-07
1.75087e-07
1.75084e-07
1.75077e-07
1.7506e-07
1.75024e-07
1.7494e-07
1.74758e-07
1.74368e-07
1.73568e-07
1.71989e-07
1.69009e-07
1.63672e-07
1.54663e-07
1.40479e-07
1.19914e-07
9.29402e-08
6.17314e-08
3.12406e-08
8.92601e-09
6.90701e-10
4.54188e-12
5.1408e-07
6.8448e-07
8.26217e-07
9.47192e-07
1.03581e-06
1.09439e-06
1.13025e-06
1.15085e-06
1.16205e-06
1.16783e-06
1.17069e-06
1.17203e-06
1.17264e-06
1.1729e-06
1.17301e-06
1.17305e-06
1.17307e-06
1.17307e-06
1.17307e-06
1.17307e-06
1.17307e-06
1.17307e-06
1.17307e-06
1.17307e-06
1.17307e-06
1.17307e-06
1.17306e-06
1.17306e-06
1.17305e-06
1.17304e-06
1.17302e-06
1.17297e-06
1.17285e-06
1.17258e-06
1.17197e-06
1.17063e-06
1.16779e-06
1.16196e-06
1.15052e-06
1.129e-06
1.09061e-06
1.02599e-06
9.24377e-07
7.76886e-07
5.82828e-07
3.59367e-07
1.53374e-07
3.21206e-08
1.86604e-09
1.11776e-11
2.38541e-06
2.83997e-06
3.25341e-06
3.62886e-06
3.91897e-06
4.119e-06
4.2453e-06
4.31953e-06
4.36058e-06
4.38208e-06
4.39282e-06
4.39793e-06
4.40026e-06
4.40128e-06
4.4017e-06
4.40187e-06
4.40193e-06
4.40194e-06
4.40195e-06
4.40195e-06
4.40195e-06
4.40194e-06
4.40194e-06
4.40193e-06
4.40193e-06
4.40192e-06
4.40191e-06
4.40189e-06
4.40187e-06
4.40182e-06
4.40172e-06
4.40149e-06
4.40097e-06
4.39978e-06
4.3971e-06
4.39122e-06
4.37878e-06
4.35334e-06
4.30346e-06
4.21e-06
4.04366e-06
3.7646e-06
3.32779e-06
2.70011e-06
1.89682e-06
1.03898e-06
3.70136e-07
6.45899e-08
3.44147e-09
2.01435e-11
7.31468e-06
8.21934e-06
9.03315e-06
9.81149e-06
1.04405e-05
1.08923e-05
1.11878e-05
1.13666e-05
1.14679e-05
1.1522e-05
1.15495e-05
1.15628e-05
1.15689e-05
1.15716e-05
1.15728e-05
1.15732e-05
1.15734e-05
1.15735e-05
1.15735e-05
1.15735e-05
1.15734e-05
1.15734e-05
1.15734e-05
1.15734e-05
1.15734e-05
1.15734e-05
1.15733e-05
1.15733e-05
1.15732e-05
1.15731e-05
1.15728e-05
1.1572e-05
1.15703e-05
1.15664e-05
1.15576e-05
1.15384e-05
1.14975e-05
1.14141e-05
1.12507e-05
1.09452e-05
1.04042e-05
9.50594e-06
8.13063e-06
6.2403e-06
4.01607e-06
1.95083e-06
6.12947e-07
9.84791e-08
5.11265e-09
2.972e-11
1.6517e-05
1.83584e-05
1.96665e-05
2.09003e-05
2.19232e-05
2.2681e-05
2.31929e-05
2.35121e-05
2.36978e-05
2.37994e-05
2.38521e-05
2.3878e-05
2.38902e-05
2.38957e-05
2.3898e-05
2.3899e-05
2.38993e-05
2.38994e-05
2.38995e-05
2.38994e-05
2.38994e-05
2.38994e-05
2.38994e-05
2.38994e-05
2.38993e-05
2.38993e-05
2.38992e-05
2.38991e-05
2.38989e-05
2.38986e-05
2.38977e-05
2.38958e-05
2.38913e-05
2.38808e-05
2.38572e-05
2.38053e-05
2.36952e-05
2.34704e-05
2.30308e-05
2.22138e-05
2.07859e-05
1.84781e-05
1.51142e-05
1.08533e-05
6.40442e-06
2.8368e-06
8.28987e-07
1.28413e-07
6.60918e-09
3.83438e-11
2.93273e-05
3.32079e-05
3.53715e-05
3.70382e-05
3.84016e-05
3.94207e-05
4.01241e-05
4.05737e-05
4.0842e-05
4.09923e-05
4.10719e-05
4.11119e-05
4.11311e-05
4.11398e-05
4.11436e-05
4.11451e-05
4.11457e-05
4.11459e-05
4.1146e-05
4.1146e-05
4.11459e-05
4.11459e-05
4.11459e-05
4.11458e-05
4.11457e-05
4.11457e-05
4.11455e-05
4.11454e-05
4.1145e-05
4.11442e-05
4.11424e-05
4.11381e-05
4.11279e-05
4.11043e-05
4.10509e-05
4.09335e-05
4.06844e-05
4.01768e-05
3.91899e-05
3.73778e-05
3.4286e-05
2.94973e-05
2.29776e-05
1.54811e-05
8.51967e-06
3.5509e-06
9.97273e-07
1.51835e-07
7.7891e-09
4.51742e-11
4.31169e-05
5.03753e-05
5.39418e-05
5.61825e-05
5.78208e-05
5.90092e-05
5.98289e-05
6.03595e-05
6.06818e-05
6.08662e-05
6.09657e-05
6.10167e-05
6.10415e-05
6.10529e-05
6.1058e-05
6.10601e-05
6.10609e-05
6.10612e-05
6.10613e-05
6.10612e-05
6.10612e-05
6.10612e-05
6.10611e-05
6.1061e-05
6.1061e-05
6.10608e-05
6.10606e-05
6.10603e-05
6.10597e-05
6.10582e-05
6.10549e-05
6.10468e-05
6.10276e-05
6.0983e-05
6.08817e-05
6.06595e-05
6.01891e-05
5.92346e-05
5.73953e-05
5.40754e-05
4.85779e-05
4.04643e-05
3.01628e-05
1.93109e-05
1.01222e-05
4.06509e-06
1.11712e-06
1.68584e-07
8.6365e-09
5.00989e-11
5.50295e-05
6.62393e-05
7.14971e-05
7.46536e-05
7.65901e-05
7.79015e-05
7.87804e-05
7.93465e-05
7.96925e-05
7.98927e-05
8.00024e-05
8.00594e-05
8.00874e-05
8.01006e-05
8.01064e-05
8.01089e-05
8.01099e-05
8.01102e-05
8.01103e-05
8.01103e-05
8.01103e-05
8.01102e-05
8.01101e-05
8.01101e-05
8.01099e-05
8.01098e-05
8.01095e-05
8.0109e-05
8.0108e-05
8.01057e-05
8.01003e-05
8.00875e-05
8.00571e-05
7.99862e-05
7.98257e-05
7.94738e-05
7.8731e-05
7.72321e-05
7.43724e-05
6.92992e-05
6.11337e-05
4.95879e-05
3.57438e-05
2.20862e-05
1.12262e-05
4.41223e-06
1.19809e-06
1.79947e-07
9.21379e-09
5.34681e-11
6.36797e-05
7.83753e-05
8.52567e-05
8.9375e-05
9.16527e-05
9.30899e-05
9.40165e-05
9.46034e-05
9.49607e-05
9.5168e-05
9.52823e-05
9.53422e-05
9.53719e-05
9.53859e-05
9.53922e-05
9.53949e-05
9.5396e-05
9.53964e-05
9.53965e-05
9.53965e-05
9.53964e-05
9.53963e-05
9.53963e-05
9.53962e-05
9.5396e-05
9.53957e-05
9.53953e-05
9.53946e-05
9.53931e-05
9.53899e-05
9.53825e-05
9.5365e-05
9.53236e-05
9.52276e-05
9.50104e-05
9.45353e-05
9.3535e-05
9.15261e-05
8.77242e-05
8.10702e-05
7.05874e-05
5.62146e-05
3.96398e-05
2.39648e-05
1.1966e-05
4.64726e-06
1.25383e-06
1.87858e-07
9.6189e-09
5.5859e-11
6.91834e-05
8.63614e-05
9.44655e-05
9.9324e-05
0.00010198
0.000103547
0.000104528
0.000105139
0.000105508
0.000105722
0.00010584
0.000105902
0.000105933
0.000105948
0.000105954
0.000105957
0.000105958
0.000105959
0.000105959
0.000105959
0.000105959
0.000105959
0.000105959
0.000105959
0.000105958
0.000105958
0.000105957
0.000105956
0.000105954
0.00010595
0.00010594
0.000105919
0.000105869
0.000105755
0.000105496
0.000104931
0.000103744
0.000101366
9.68868e-05
8.91097e-05
7.70086e-05
6.07035e-05
4.22954e-05
2.52801e-05
1.2511e-05
4.8314e-06
1.29975e-06
1.9455e-07
9.96357e-09
5.79329e-11
7.23609e-05
9.1064e-05
9.99526e-05
0.000105282
0.00010824
0.000109924
0.000110958
0.000111596
0.00011198
0.000112201
0.000112323
0.000112388
0.00011242
0.000112435
0.000112442
0.000112445
0.000112446
0.000112446
0.000112447
0.000112447
0.000112447
0.000112446
0.000112446
0.000112446
0.000112445
0.000112445
0.000112443
0.000112442
0.000112439
0.000112433
0.000112422
0.000112398
0.000112343
0.000112218
0.000111937
0.000111325
0.00011004
0.000107468
0.000102631
9.42505e-05
8.12612e-05
6.38572e-05
4.43192e-05
2.64021e-05
1.30415e-05
5.03427e-06
1.35514e-06
2.02975e-07
1.03864e-08
6.02972e-11
7.40713e-05
9.36244e-05
0.000102969
0.000108582
0.00011172
0.000113485
0.00011456
0.000115221
0.000115617
0.000115845
0.000115971
0.000116038
0.000116071
0.000116087
0.000116094
0.000116097
0.000116098
0.000116098
0.000116099
0.000116099
0.000116098
0.000116098
0.000116098
0.000116097
0.000116096
0.000116095
0.000116093
0.00011609
0.000116085
0.000116078
0.000116064
0.000116038
0.00011598
0.000115852
0.000115566
0.000114944
0.00011364
0.000111032
0.00010612
9.75902e-05
8.43246e-05
6.64953e-05
4.62972e-05
2.76998e-05
1.37633e-05
5.35211e-06
1.45257e-06
2.19148e-07
1.12273e-08
6.46679e-11
7.49491e-05
9.49474e-05
0.000104541
0.000110313
0.000113551
0.000115364
0.000116464
0.000117139
0.000117543
0.000117777
0.000117906
0.000117974
0.000118008
0.000118024
0.000118032
0.000118035
0.000118036
0.000118036
0.000118037
0.000118037
0.000118036
0.000118036
0.000118035
0.000118034
0.000118033
0.00011803
0.000118026
0.000118021
0.000118013
0.000118002
0.000117986
0.000117956
0.000117896
0.000117768
0.000117488
0.000116882
0.000115616
0.000113087
0.000108322
0.000100011
8.6912e-05
6.91569e-05
4.8601e-05
2.94313e-05
1.48555e-05
5.89591e-06
1.64328e-06
2.55801e-07
1.33798e-08
7.2875e-11
7.53894e-05
9.56146e-05
0.00010534
0.000111199
0.0001145
0.000116335
0.000117447
0.000118129
0.000118538
0.000118775
0.000118906
0.000118975
0.00011901
0.000119026
0.000119034
0.000119037
0.000119038
0.000119039
0.000119039
0.000119039
0.000119039
0.000119038
0.000119037
0.000119035
0.000119032
0.000119027
0.000119021
0.000119011
0.000118999
0.000118982
0.00011896
0.000118925
0.000118862
0.000118735
0.000118464
0.000117885
0.000116683
0.000114297
0.00010983
0.000102084
9.31125e-05
7.55528e-05
5.52168e-05
3.51286e-05
1.88988e-05
8.1954e-06
2.62654e-06
5.23252e-07
4.30954e-08
3.34515e-10
7.56162e-05
9.59601e-05
0.000105758
0.000111663
0.000115021
0.000116864
0.000117976
0.00011866
0.000119072
0.00011931
0.000119443
0.000119513
0.000119548
0.000119565
0.000119572
0.000119575
0.000119577
0.000119577
0.000119577
0.000119577
0.000119576
0.000119575
0.000119573
0.00011957
0.000119565
0.000119557
0.000119546
0.00011953
0.000119509
0.000119483
0.000119451
0.000119407
0.000119338
0.00011921
0.000118945
0.000118389
0.000117242
0.000114977
0.000110759
0.000103364
9.37825e-05
7.71614e-05
5.67494e-05
3.65132e-05
1.98758e-05
8.69041e-06
2.80837e-06
5.62513e-07
4.50186e-08
3.19137e-10
7.57471e-05
9.61612e-05
0.000106004
0.000111941
0.000115357
0.0001172
0.000118307
0.000118991
0.000119405
0.000119645
0.000119779
0.000119849
0.000119885
0.000119902
0.00011991
0.000119913
0.000119914
0.000119915
0.000119915
0.000119914
0.000119913
0.000119912
0.000119908
0.000119903
0.000119894
0.000119881
0.000119862
0.000119836
0.000119802
0.000119762
0.000119714
0.000119657
0.000119578
0.000119444
0.00011918
0.000118635
0.000117511
0.000115282
0.0001111
0.00010364
9.36145e-05
7.7074e-05
5.68268e-05
3.67108e-05
1.99277e-05
8.56644e-06
2.72016e-06
5.40651e-07
4.2802e-08
2.97093e-10
7.58409e-05
9.63067e-05
0.000106187
0.000112153
0.000115625
0.000117473
0.000118576
0.000119261
0.000119677
0.00011992
0.000120055
0.000120126
0.000120162
0.000120179
0.000120187
0.000120191
0.000120192
0.000120192
0.000120192
0.000120191
0.00012019
0.000120187
0.000120182
0.000120174
0.00012016
0.000120138
0.000120107
0.000120065
0.000120012
0.00011995
0.000119881
0.000119804
0.000119709
0.000119565
0.0001193
0.00011876
0.000117651
0.000115441
0.000111279
0.000103818
9.38916e-05
7.71103e-05
5.69822e-05
3.67941e-05
1.97496e-05
6.8641e-06
2.0294e-06
3.80305e-07
2.66958e-08
1.01196e-10
7.59244e-05
9.64375e-05
0.000106354
0.000112353
0.000115882
0.000117742
0.000118849
0.000119538
0.000119959
0.000120205
0.000120342
0.000120415
0.000120452
0.000120469
0.000120477
0.00012048
0.000120482
0.000120482
0.000120482
0.00012048
0.000120478
0.000120474
0.000120467
0.000120454
0.000120432
0.000120399
0.000120351
0.000120286
0.000120204
0.000120111
0.000120011
0.000119908
0.000119794
0.000119638
0.000119368
0.000118835
0.000117745
0.000115578
0.000111496
0.000104187
9.44873e-05
7.77351e-05
5.76459e-05
3.7276e-05
1.98783e-05
6.85553e-06
2.0514e-06
3.84411e-07
2.74792e-08
1.07568e-10
7.60078e-05
9.6569e-05
0.000106525
0.000112564
0.00011615
0.000118033
0.000119154
0.000119854
0.000120283
0.000120535
0.000120675
0.000120749
0.000120787
0.000120805
0.000120813
0.000120816
0.000120817
0.000120818
0.000120817
0.000120815
0.000120812
0.000120806
0.000120795
0.000120776
0.000120744
0.000120695
0.000120622
0.000120525
0.000120404
0.000120269
0.00012013
0.000119996
0.000119858
0.000119688
0.000119413
0.000118887
0.000117823
0.000115711
0.000111736
0.000104617
9.5118e-05
7.85789e-05
5.85558e-05
3.80311e-05
2.03308e-05
7.06716e-06
2.1085e-06
3.95388e-07
2.8618e-08
1.11972e-10
7.6092e-05
9.6702e-05
0.0001067
0.000112784
0.000116429
0.000118348
0.000119496
0.000120216
0.000120657
0.000120916
0.00012106
0.000121137
0.000121175
0.000121193
0.000121202
0.000121205
0.000121206
0.000121206
0.000121206
0.000121203
0.000121199
0.000121191
0.000121175
0.000121148
0.000121103
0.000121032
0.000120927
0.000120787
0.000120614
0.000120425
0.000120242
0.000120073
0.000119911
0.000119726
0.000119448
0.00011893
0.000117893
0.00011584
0.000111976
0.000105037
9.57045e-05
7.94086e-05
5.94932e-05
3.88748e-05
2.09022e-05
7.30067e-06
2.19734e-06
4.22751e-07
3.19682e-08
1.27879e-10
7.61741e-05
9.68306e-05
0.000106868
0.000112998
0.000116703
0.000118673
0.00011986
0.000120607
0.000121065
0.000121333
0.000121482
0.00012156
0.0001216
0.000121618
0.000121627
0.00012163
0.000121632
0.000121632
0.00012163
0.000121628
0.000121622
0.000121611
0.000121591
0.000121554
0.000121493
0.000121395
0.00012125
0.000121053
0.000120815
0.000120568
0.000120339
0.000120137
0.000119954
0.000119756
0.000119474
0.000118964
0.000117954
0.000115957
0.000112198
0.000105428
9.62667e-05
8.02146e-05
6.04503e-05
3.97923e-05
2.15818e-05
7.65351e-06
2.34648e-06
4.69422e-07
3.19293e-08
3.51087e-10
7.62519e-05
9.6949e-05
0.000107022
0.000113193
0.000116953
0.000118983
0.000120218
0.000120994
0.000121468
0.000121744
0.000121897
0.000121978
0.000122018
0.000122037
0.000122046
0.000122049
0.000122051
0.00012205
0.000122049
0.000122046
0.000122039
0.000122025
0.000122
0.000121954
0.000121875
0.000121747
0.000121553
0.000121287
0.000120983
0.000120685
0.000120419
0.000120191
0.00011999
0.000119783
0.000119498
0.000118996
0.000118008
0.00011606
0.000112392
0.000105778
9.67767e-05
8.10019e-05
6.14084e-05
4.07415e-05
2.23289e-05
8.07942e-06
2.55753e-06
5.37154e-07
3.90429e-08
4.58026e-10
7.6331e-05
9.70606e-05
0.000107162
0.000113364
0.000117164
0.000119253
0.000120529
0.000121328
0.000121813
0.000122095
0.00012225
0.000122331
0.000122372
0.000122391
0.0001224
0.000122403
0.000122404
0.000122404
0.000122403
0.000122399
0.000122391
0.000122376
0.000122346
0.000122293
0.000122198
0.000122039
0.00012179
0.000121465
0.000121115
0.000120783
0.000120492
0.000120246
0.000120034
0.00011982
0.000119535
0.000119038
0.000118067
0.000116155
0.000112554
0.000106052
9.71393e-05
8.16675e-05
6.22205e-05
4.15523e-05
2.29868e-05
8.44773e-06
2.83254e-06
6.61239e-07
9.71488e-08
2.48232e-09
7.63333e-05
9.70757e-05
0.000107192
0.000113411
0.000117232
0.000119357
0.000120656
0.000121465
0.000121955
0.000122238
0.000122393
0.000122475
0.000122516
0.000122535
0.000122544
0.000122547
0.000122549
0.000122548
0.000122546
0.000122543
0.000122534
0.000122518
0.000122487
0.00012243
0.000122327
0.000122146
0.000121867
0.00012152
0.000121153
0.000120809
0.000120509
0.000120257
0.000120041
0.000119825
0.00011954
0.000119045
0.00011808
0.000116183
0.000112609
0.00010615
9.72139e-05
8.20069e-05
6.26331e-05
4.19616e-05
2.33358e-05
8.6963e-06
3.00518e-06
7.7291e-07
1.49022e-07
1.32315e-08
7.63002e-05
9.70318e-05
0.000107142
0.000113354
0.00011716
0.000119249
0.000120525
0.000121324
0.000121808
0.000122089
0.000122244
0.000122325
0.000122365
0.000122385
0.000122393
0.000122397
0.000122398
0.000122398
0.000122396
0.000122392
0.000122385
0.000122369
0.00012234
0.000122286
0.000122191
0.000122032
0.000121784
0.000121459
0.000121109
0.000120777
0.000120487
0.000120241
0.000120029
0.000119815
0.00011953
0.000119034
0.000118064
0.000116154
0.000112557
0.000106052
9.69764e-05
8.18818e-05
6.24659e-05
4.17651e-05
2.31406e-05
8.5068e-06
2.87535e-06
6.93199e-07
1.03764e-07
3.40458e-09
7.62193e-05
9.69187e-05
0.000107002
0.000113185
0.000116951
0.000118982
0.000120216
0.000120991
0.000121465
0.00012174
0.000121892
0.000121972
0.000122012
0.000122031
0.00012204
0.000122044
0.000122045
0.000122045
0.000122043
0.00012204
0.000122033
0.00012202
0.000121994
0.000121948
0.000121868
0.000121739
0.000121546
0.000121283
0.000120978
0.00012068
0.000120414
0.000120186
0.000119985
0.000119778
0.000119493
0.000118992
0.000118005
0.00011606
0.000112396
0.000105774
9.651e-05
8.13375e-05
6.17859e-05
4.10412e-05
2.24856e-05
8.04008e-06
2.59129e-06
5.5425e-07
6.18973e-08
4.8196e-10
7.6164e-05
9.68211e-05
0.000106865
0.000113001
0.000116708
0.000118678
0.000119863
0.000120609
0.000121066
0.000121333
0.000121481
0.00012156
0.000121599
0.000121618
0.000121626
0.00012163
0.000121631
0.000121631
0.00012163
0.000121627
0.000121621
0.00012161
0.00012159
0.000121553
0.000121491
0.000121393
0.000121247
0.000121051
0.000120813
0.000120566
0.000120338
0.000120136
0.000119953
0.000119755
0.000119474
0.000118964
0.000117955
0.000115959
0.000112199
0.000105418
9.59576e-05
8.05833e-05
6.08574e-05
4.00876e-05
2.16865e-05
7.57444e-06
2.35906e-06
4.74988e-07
4.94217e-08
3.55033e-10
7.60908e-05
9.67015e-05
0.000106702
0.000112789
0.000116433
0.000118352
0.000119497
0.000120217
0.000120658
0.000120917
0.000121061
0.000121137
0.000121175
0.000121193
0.000121202
0.000121205
0.000121206
0.000121207
0.000121206
0.000121204
0.000121199
0.000121191
0.000121175
0.000121148
0.000121102
0.000121031
0.000120926
0.000120785
0.000120612
0.000120424
0.00012024
0.000120072
0.00011991
0.000119725
0.000119447
0.000118929
0.000117893
0.00011584
0.000111973
0.000105021
9.53889e-05
7.97805e-05
5.98907e-05
3.91357e-05
2.09523e-05
7.2069e-06
2.19443e-06
4.2468e-07
3.28532e-08
1.36573e-10
7.60086e-05
9.65708e-05
0.00010653
0.000112569
0.000116152
0.000118034
0.000119153
0.000119855
0.000120284
0.000120535
0.000120675
0.000120749
0.000120787
0.000120805
0.000120813
0.000120816
0.000120818
0.000120818
0.000120817
0.000120816
0.000120812
0.000120806
0.000120795
0.000120776
0.000120744
0.000120694
0.000120621
0.000120523
0.000120402
0.000120267
0.000120129
0.000119994
0.000119857
0.000119686
0.000119411
0.000118885
0.000117821
0.000115708
0.000111732
0.000104609
9.47884e-05
7.89804e-05
5.89615e-05
3.82735e-05
2.03467e-05
6.95333e-06
2.09002e-06
3.9172e-07
2.83215e-08
1.10791e-10
7.59254e-05
9.64395e-05
0.000106359
0.000112357
0.000115881
0.000117741
0.000118847
0.000119538
0.000119959
0.000120205
0.000120342
0.000120415
0.000120452
0.000120469
0.000120477
0.00012048
0.000120482
0.000120482
0.000120482
0.000120481
0.000120478
0.000120474
0.000120467
0.000120453
0.000120432
0.000120398
0.00012035
0.000120284
0.000120203
0.000120109
0.00012001
0.000119907
0.000119792
0.000119634
0.000119363
0.000118828
0.000117736
0.000115564
0.000111481
0.000104179
9.41558e-05
7.81396e-05
5.80388e-05
3.74882e-05
1.9856e-05
6.76889e-06
2.04289e-06
3.82392e-07
2.7183e-08
1.05513e-10
7.58411e-05
9.63075e-05
0.000106191
0.000112154
0.00011562
0.00011747
0.000118573
0.00011926
0.000119676
0.000119919
0.000120054
0.000120126
0.000120162
0.000120179
0.000120187
0.000120191
0.000120192
0.000120192
0.000120192
0.000120191
0.00012019
0.000120187
0.000120182
0.000120174
0.00012016
0.000120138
0.000120107
0.000120064
0.000120011
0.000119949
0.000119879
0.000119802
0.000119706
0.000119561
0.000119292
0.000118747
0.000117629
0.000115405
0.000111232
0.000103785
9.36034e-05
7.73195e-05
5.7176e-05
3.68438e-05
1.9573e-05
6.68234e-06
1.98091e-06
3.70784e-07
2.60867e-08
9.71001e-11
7.5746e-05
9.61599e-05
0.000106007
0.00011194
0.000115349
0.000117196
0.000118303
0.000118989
0.000119403
0.000119644
0.000119778
0.000119849
0.000119885
0.000119902
0.00011991
0.000119913
0.000119915
0.000119915
0.000119915
0.000119914
0.000119914
0.000119912
0.000119909
0.000119903
0.000119895
0.000119881
0.000119862
0.000119835
0.000119801
0.000119761
0.000119713
0.000119655
0.000119574
0.000119437
0.000119169
0.000118614
0.00011747
0.000115204
0.000110979
0.000103493
9.35645e-05
7.68414e-05
5.66639e-05
3.65495e-05
1.96893e-05
8.26551e-06
2.58197e-06
5.12988e-07
4.08041e-08
2.79825e-10
7.5614e-05
9.59561e-05
0.000105757
0.000111659
0.00011501
0.000116857
0.00011797
0.000118656
0.000119069
0.000119309
0.000119442
0.000119512
0.000119548
0.000119565
0.000119572
0.000119576
0.000119577
0.000119578
0.000119578
0.000119577
0.000119577
0.000119576
0.000119574
0.000119571
0.000119565
0.000119557
0.000119546
0.000119529
0.000119509
0.000119483
0.00011945
0.000119405
0.000119335
0.000119203
0.000118931
0.000118362
0.000117191
0.000114887
0.000110647
0.000103312
9.3719e-05
7.71225e-05
5.67661e-05
3.6628e-05
1.99538e-05
8.69441e-06
2.79562e-06
5.56605e-07
4.41099e-08
3.08923e-10
7.53883e-05
9.56091e-05
0.000105336
0.000111191
0.000114487
0.000116326
0.00011744
0.000118124
0.000118535
0.000118773
0.000118905
0.000118975
0.00011901
0.000119027
0.000119034
0.000119038
0.000119039
0.00011904
0.00011904
0.00011904
0.000119039
0.000119039
0.000119038
0.000119036
0.000119033
0.000119028
0.000119021
0.000119012
0.000118999
0.000118982
0.000118959
0.000118923
0.000118859
0.000118728
0.000118451
0.000117863
0.000116651
0.000114279
0.00010995
0.000102544
9.2419e-05
7.68594e-05
5.64368e-05
3.61749e-05
1.96348e-05
8.58037e-06
2.7706e-06
5.5452e-07
4.46357e-08
3.18578e-10
7.49546e-05
9.49454e-05
0.000104536
0.000110305
0.000113538
0.000115351
0.000116455
0.000117132
0.000117539
0.000117774
0.000117904
0.000117973
0.000118008
0.000118025
0.000118032
0.000118036
0.000118037
0.000118038
0.000118038
0.000118038
0.000118037
0.000118037
0.000118037
0.000118035
0.000118034
0.000118031
0.000118027
0.000118022
0.000118014
0.000118003
0.000117986
0.000117955
0.000117894
0.000117763
0.000117478
0.000116868
0.000115606
0.000113131
0.000108616
0.00010093
8.79927e-05
6.98064e-05
4.91125e-05
2.97636e-05
1.50155e-05
5.94118e-06
1.64684e-06
2.54948e-07
1.32931e-08
7.23105e-11
7.40952e-05
9.36376e-05
0.000102971
0.000108577
0.00011171
0.000113473
0.000114551
0.000115213
0.000115611
0.000115841
0.000115969
0.000116037
0.000116071
0.000116087
0.000116095
0.000116098
0.000116099
0.0001161
0.0001161
0.0001161
0.0001161
0.0001161
0.000116099
0.000116099
0.000116098
0.000116096
0.000116094
0.000116091
0.000116086
0.000116079
0.000116065
0.000116038
0.000115979
0.000115849
0.00011556
0.000114935
0.000113632
0.000111045
0.000106253
9.80701e-05
8.50649e-05
6.71581e-05
4.68512e-05
2.80794e-05
1.396e-05
5.42307e-06
1.46868e-06
2.21441e-07
1.13958e-08
6.6134e-11
7.24214e-05
9.11117e-05
9.99761e-05
0.000105289
0.000108239
0.000109916
0.00011095
0.000111588
0.000111973
0.000112196
0.00011232
0.000112386
0.000112419
0.000112435
0.000112443
0.000112446
0.000112447
0.000112448
0.000112448
0.000112448
0.000112448
0.000112448
0.000112448
0.000112447
0.000112447
0.000112446
0.000112445
0.000112443
0.00011244
0.000112434
0.000112423
0.000112399
0.000112343
0.000112217
0.000111935
0.000111323
0.00011004
0.000107481
0.000102696
9.44652e-05
8.15968e-05
6.42007e-05
4.46263e-05
2.66205e-05
1.31605e-05
5.08161e-06
1.36792e-06
2.05077e-07
1.05223e-08
6.11644e-11
6.93016e-05
8.64667e-05
9.45267e-05
9.93537e-05
0.000101997
0.000103549
0.000104524
0.000105132
0.000105501
0.000105715
0.000105835
0.000105898
0.00010593
0.000105946
0.000105953
0.000105956
0.000105958
0.000105958
0.000105958
0.000105958
0.000105958
0.000105958
0.000105958
0.000105958
0.000105958
0.000105957
0.000105956
0.000105955
0.000105953
0.000105949
0.00010594
0.000105918
0.000105869
0.000105754
0.000105496
0.000104932
0.000103749
0.000101379
9.69215e-05
8.91993e-05
7.71461e-05
6.08516e-05
4.24284e-05
2.53742e-05
1.25624e-05
4.85231e-06
1.30556e-06
1.9549e-07
1.00158e-08
5.81842e-11
6.38691e-05
7.85549e-05
8.53724e-05
8.94416e-05
9.16936e-05
9.31065e-05
9.4019e-05
9.45973e-05
9.49506e-05
9.51569e-05
9.52718e-05
9.53327e-05
9.53636e-05
9.53784e-05
9.53853e-05
9.53883e-05
9.53896e-05
9.53901e-05
9.53903e-05
9.53903e-05
9.53902e-05
9.53902e-05
9.53901e-05
9.539e-05
9.53898e-05
9.53896e-05
9.53892e-05
9.53884e-05
9.5387e-05
9.53839e-05
9.53766e-05
9.53593e-05
9.53182e-05
9.52227e-05
9.50065e-05
9.45333e-05
9.35364e-05
9.15318e-05
8.77362e-05
8.10956e-05
7.06223e-05
5.62476e-05
3.96651e-05
2.39803e-05
1.19738e-05
4.6503e-06
1.25463e-06
1.87972e-07
9.62363e-09
5.58724e-11
5.52754e-05
6.64802e-05
7.16604e-05
7.47547e-05
7.66476e-05
7.79278e-05
7.87853e-05
7.93379e-05
7.96768e-05
7.98742e-05
7.99834e-05
8.00408e-05
8.00697e-05
8.00835e-05
8.00899e-05
8.00927e-05
8.00938e-05
8.00943e-05
8.00944e-05
8.00945e-05
8.00944e-05
8.00944e-05
8.00943e-05
8.00942e-05
8.00941e-05
8.00939e-05
8.00937e-05
8.00932e-05
8.00922e-05
8.00901e-05
8.00849e-05
8.00724e-05
8.00425e-05
7.99724e-05
7.98129e-05
7.94622e-05
7.87204e-05
7.7221e-05
7.43574e-05
6.92772e-05
6.11004e-05
4.95431e-05
3.56969e-05
2.20498e-05
1.1206e-05
4.40428e-06
1.19591e-06
1.79584e-07
9.19156e-09
5.33242e-11
4.33542e-05
5.06123e-05
5.41052e-05
5.6286e-05
5.78767e-05
5.90336e-05
5.98298e-05
6.0345e-05
6.06586e-05
6.08388e-05
6.09369e-05
6.09878e-05
6.1013e-05
6.10249e-05
6.10304e-05
6.10327e-05
6.10337e-05
6.10341e-05
6.10342e-05
6.10342e-05
6.10341e-05
6.10341e-05
6.10341e-05
6.1034e-05
6.10339e-05
6.10338e-05
6.10336e-05
6.10333e-05
6.10327e-05
6.10314e-05
6.10282e-05
6.10205e-05
6.10018e-05
6.09579e-05
6.08574e-05
6.06355e-05
6.0164e-05
5.92051e-05
5.73556e-05
5.40189e-05
4.85002e-05
4.03704e-05
3.0071e-05
1.92431e-05
1.00867e-05
4.05247e-06
1.1141e-06
1.6811e-07
8.60471e-09
4.9861e-11
2.94583e-05
3.33494e-05
3.54754e-05
3.71048e-05
3.84367e-05
3.94326e-05
4.0117e-05
4.05533e-05
4.08134e-05
4.09596e-05
4.10375e-05
4.10771e-05
4.10963e-05
4.11052e-05
4.11093e-05
4.1111e-05
4.11117e-05
4.1112e-05
4.11121e-05
4.1112e-05
4.1112e-05
4.1112e-05
4.1112e-05
4.11119e-05
4.11118e-05
4.11118e-05
4.11116e-05
4.11115e-05
4.11111e-05
4.11104e-05
4.11088e-05
4.11047e-05
4.10949e-05
4.10718e-05
4.10187e-05
4.0901e-05
4.06498e-05
4.01365e-05
3.91379e-05
3.73075e-05
3.41935e-05
2.93886e-05
2.28732e-05
1.54066e-05
8.48455e-06
3.54191e-06
9.96481e-07
1.51814e-07
7.77584e-09
4.49679e-11
1.64804e-05
1.83561e-05
1.96838e-05
2.0915e-05
2.19304e-05
2.26781e-05
2.31793e-05
2.34899e-05
2.36699e-05
2.37683e-05
2.38195e-05
2.38449e-05
2.3857e-05
2.38626e-05
2.3865e-05
2.38661e-05
2.38665e-05
2.38666e-05
2.38667e-05
2.38667e-05
2.38666e-05
2.38666e-05
2.38666e-05
2.38666e-05
2.38665e-05
2.38665e-05
2.38664e-05
2.38663e-05
2.38662e-05
2.38659e-05
2.38651e-05
2.38633e-05
2.3859e-05
2.38488e-05
2.38252e-05
2.37728e-05
2.36608e-05
2.34312e-05
2.29824e-05
2.21513e-05
2.07068e-05
1.83879e-05
1.503e-05
1.07976e-05
6.38645e-06
2.84095e-06
8.34365e-07
1.29646e-07
6.65816e-09
3.83748e-11
7.17067e-06
8.12564e-06
8.99303e-06
9.79262e-06
1.04295e-05
1.08811e-05
1.11729e-05
1.13477e-05
1.14459e-05
1.14982e-05
1.15247e-05
1.15376e-05
1.15436e-05
1.15463e-05
1.15475e-05
1.1548e-05
1.15482e-05
1.15483e-05
1.15483e-05
1.15483e-05
1.15483e-05
1.15483e-05
1.15483e-05
1.15483e-05
1.15482e-05
1.15482e-05
1.15482e-05
1.15481e-05
1.15481e-05
1.1548e-05
1.15477e-05
1.1547e-05
1.15454e-05
1.15416e-05
1.15328e-05
1.15131e-05
1.1471e-05
1.13848e-05
1.1216e-05
1.09026e-05
1.03527e-05
9.44975e-06
8.0816e-06
6.21485e-06
4.0214e-06
1.97191e-06
6.2695e-07
1.01674e-07
5.27118e-09
3.02331e-11
2.26157e-06
2.75124e-06
3.20919e-06
3.60563e-06
3.90529e-06
4.1082e-06
4.23418e-06
4.30709e-06
4.3469e-06
4.36758e-06
4.37786e-06
4.38278e-06
4.38504e-06
4.38605e-06
4.38649e-06
4.38667e-06
4.38674e-06
4.38676e-06
4.38676e-06
4.38676e-06
4.38676e-06
4.38676e-06
4.38675e-06
4.38675e-06
4.38674e-06
4.38673e-06
4.38672e-06
4.38671e-06
4.38669e-06
4.38665e-06
4.38656e-06
4.38636e-06
4.38588e-06
4.38471e-06
4.38201e-06
4.37594e-06
4.36293e-06
4.33623e-06
4.28407e-06
4.18731e-06
4.0176e-06
3.7377e-06
3.30671e-06
2.69453e-06
1.91239e-06
1.06651e-06
3.89294e-07
6.95029e-08
3.72018e-09
2.12725e-11
4.63611e-07
6.44408e-07
8.04782e-07
9.35055e-07
1.0282e-06
1.0885e-06
1.12463e-06
1.14497e-06
1.15584e-06
1.16138e-06
1.16409e-06
1.16537e-06
1.16596e-06
1.16621e-06
1.16632e-06
1.16637e-06
1.16639e-06
1.16639e-06
1.16639e-06
1.16639e-06
1.16639e-06
1.16639e-06
1.16639e-06
1.16639e-06
1.16639e-06
1.16638e-06
1.16638e-06
1.16638e-06
1.16637e-06
1.16636e-06
1.16634e-06
1.1663e-06
1.16619e-06
1.16593e-06
1.16531e-06
1.16391e-06
1.1609e-06
1.1547e-06
1.14258e-06
1.12011e-06
1.08081e-06
1.01624e-06
9.17173e-07
7.76154e-07
5.918e-07
3.75888e-07
1.67531e-07
3.67576e-08
2.18091e-09
1.26397e-11
5.0681e-08
8.51429e-08
1.14361e-07
1.36683e-07
1.51897e-07
1.61431e-07
1.6702e-07
1.70117e-07
1.71751e-07
1.72576e-07
1.72976e-07
1.73163e-07
1.73248e-07
1.73285e-07
1.73301e-07
1.73308e-07
1.7331e-07
1.7331e-07
1.73311e-07
1.7331e-07
1.73311e-07
1.73311e-07
1.7331e-07
1.7331e-07
1.7331e-07
1.73309e-07
1.73309e-07
1.73309e-07
1.73308e-07
1.73307e-07
1.73304e-07
1.73298e-07
1.73284e-07
1.73249e-07
1.73165e-07
1.72973e-07
1.72557e-07
1.71695e-07
1.70003e-07
1.66861e-07
1.61367e-07
1.5237e-07
1.38652e-07
1.19335e-07
9.44388e-08
6.53588e-08
3.53092e-08
1.08952e-08
8.80514e-10
5.5059e-12
1.96473e-09
4.02999e-09
5.70725e-09