/*--------------------------------*- C++ -*----------------------------------*\
| =========                 |                                                 |
| \\      /  F ield         | foam-extend: Open Source CFD                    |
|  \\    /   O peration     | Version:     4.0                                |
|   \\  /    A nd           | Web:         http://www.foam-extend.org         |
|    \\/     M anipulation  |                                                 |
\*---------------------------------------------------------------------------*/
FoamFile
{
    version     2.0;
    format      ascii;
    class       volScalarField;
    location    "0.0001";
    object      omega;
}
// * * * * * * * * * * * * * * * * * * * * * * * * * * * * * * * * * * * * * //

dimensions      [0 0 -1 0 0 0 0];

internalField   nonuniform List<scalar> 
28770
(
1.87595e+07
1.87595e+07
1.87595e+07
1.87595e+07
1.87595e+07
1.87595e+07
1.87595e+07
1.87595e+07
1.87595e+07
1.87595e+07
1.87595e+07
1.87595e+07
1.87595e+07
1.87595e+07
1.87595e+07
1.87595e+07
1.87595e+07
1.87595e+07
1.87595e+07
1.87595e+07
1.87595e+07
1.87595e+07
1.87595e+07
1.87595e+07
1.87595e+07
1.87595e+07
1.87595e+07
1.87595e+07
1.87595e+07
1.87595e+07
1.87595e+07
1.87595e+07
1.87595e+07
1.87595e+07
1.87595e+07
1.87595e+07
1.87595e+07
1.87595e+07
1.87595e+07
1.87595e+07
1.87595e+07
1.87595e+07
1.87595e+07
1.87595e+07
1.87595e+07
1.87595e+07
1.87595e+07
1.87595e+07
1.87595e+07
1.87595e+07
2.70017e+06
3.18573e+06
3.23006e+06
3.23472e+06
3.23535e+06
3.23546e+06
3.23549e+06
3.2355e+06
3.2355e+06
3.2355e+06
3.2355e+06
3.2355e+06
3.2355e+06
3.2355e+06
3.2355e+06
3.2355e+06
3.2355e+06
3.2355e+06
3.2355e+06
3.2355e+06
3.2355e+06
3.2355e+06
3.2355e+06
3.2355e+06
3.2355e+06
3.2355e+06
3.2355e+06
3.23551e+06
3.23551e+06
3.23551e+06
3.23551e+06
3.23551e+06
3.23551e+06
3.23551e+06
3.23551e+06
3.23551e+06
3.23551e+06
3.23551e+06
3.23552e+06
3.23552e+06
3.23554e+06
3.23557e+06
3.23563e+06
3.23581e+06
3.23641e+06
3.2389e+06
3.25304e+06
3.3621e+06
4.43127e+06
1.79872e+07
679453
1.01705e+06
1.08459e+06
1.09829e+06
1.10134e+06
1.10212e+06
1.10234e+06
1.10241e+06
1.10244e+06
1.10245e+06
1.10245e+06
1.10245e+06
1.10245e+06
1.10245e+06
1.10245e+06
1.10245e+06
1.10245e+06
1.10245e+06
1.10245e+06
1.10245e+06
1.10245e+06
1.10245e+06
1.10245e+06
1.10245e+06
1.10245e+06
1.10245e+06
1.10245e+06
1.10245e+06
1.10245e+06
1.10245e+06
1.10245e+06
1.10245e+06
1.10246e+06
1.10246e+06
1.10246e+06
1.10246e+06
1.10246e+06
1.10248e+06
1.1025e+06
1.10255e+06
1.10266e+06
1.10291e+06
1.10351e+06
1.10508e+06
1.10973e+06
1.12593e+06
1.19187e+06
1.50334e+06
3.24976e+06
1.79872e+07
228840
430762
495768
515413
521454
523409
524082
524327
524421
524458
524472
524478
524480
524481
524482
524482
524482
524482
524482
524482
524482
524482
524483
524483
524483
524483
524483
524483
524484
524484
524484
524485
524485
524487
524491
524500
524519
524562
524657
524864
525310
526286
528491
533775
547544
587074
712586
1.15998e+06
3.12319e+06
1.79872e+07
96845.4
213700
265500
286101
294067
297165
298394
298891
299095
299180
299215
299229
299235
299237
299238
299239
299239
299239
299239
299239
299239
299239
299240
299240
299240
299240
299240
299240
299240
299241
299241
299242
299244
299248
299257
299279
299329
299440
299683
300206
301312
303640
308596
319484
344664
406944
574372
1.08469e+06
3.10621e+06
1.79872e+07
49446.8
118447
156566
175046
183520
187318
189006
189752
190080
190223
190285
190311
190322
190327
190328
190329
190329
190330
190330
190330
190330
190330
190330
190330
190330
190330
190330
190331
190331
190331
190332
190333
190337
190344
190362
190405
190502
190718
191185
192171
194203
198325
206639
223595
259266
338443
529670
1.06569e+06
3.10318e+06
1.79872e+07
29715
72354.9
99573.6
114895
122890
126894
128844
129773
130206
130404
130493
130531
130548
130555
130558
130559
130559
130559
130560
130560
130560
130560
130560
130560
130560
130560
130560
130560
130561
130561
130562
130564
130569
130582
130611
130680
130836
131179
131912
133431
136489
142488
154065
176353
220082
310160
513760
1.06013e+06
3.10246e+06
1.79872e+07
20607.6
49003
68444
80760
87854.3
91727.1
93756.3
94783.2
95286.5
95525.9
95636.5
95686.1
95707.9
95717.1
95721
95722.6
95723.3
95723.5
95723.7
95723.7
95723.8
95723.9
95723.9
95724
95724.1
95724.1
95724.3
95724.4
95724.7
95725.3
95726.5
95729.5
95736.8
95754.4
95796
95892.2
96108.7
96580.5
97576
99605.3
103605
111249
125512
151853
201098
297691
507549
1.05824e+06
3.10224e+06
1.79872e+07
16131.3
36842.7
51376
61274.3
67463.1
71063.5
73057.5
74114.8
74653.8
74918.7
75044.5
75102.3
75128.1
75139.2
75144
75145.9
75146.7
75147.1
75147.2
75147.3
75147.4
75147.4
75147.4
75147.5
75147.6
75147.6
75147.7
75147.9
75148.2
75148.9
75150.5
75154.3
75163.6
75186
75238.9
75360.2
75630.9
76215.1
77433.1
79882
84629.8
93526.5
109741
138851
191579
291889
504908
1.05751e+06
3.10215e+06
1.79872e+07
13855.4
30449.2
42176.2
50358.3
55804.6
59124
61037.3
62087.2
62638.1
62915.6
63050.2
63113.2
63141.7
63154.3
63159.7
63161.9
63162.8
63163.2
63163.4
63163.4
63163.5
63163.5
63163.6
63163.6
63163.7
63163.7
63163.8
63164
63164.4
63165.2
63167
63171.6
63182.6
63209.1
63271.1
63412.5
63725.7
64396
65780.3
68533.8
73808.1
83557.5
101050
131896
186685
289047
503678
1.05718e+06
3.10212e+06
1.79872e+07
12685.9
27092
37253.9
44389.8
49316.8
52419.5
54253.7
55282.8
55833.5
56115.6
56254.5
56320.4
56350.7
56364.1
56369.9
56372.4
56373.4
56373.8
56373.9
56374
56374.1
56374.1
56374.1
56374.2
56374.2
56374.3
56374.4
56374.7
56375.1
56376
56378.1
56383.3
56395.6
56425
56493.6
56649.2
56991.6
57719.9
59213.4
62161.8
67764
78029.7
96274.8
128111
184037
287496
502978
1.05698e+06
3.10209e+06
1.79872e+07
12091.1
25358.5
34688.3
41233.8
45812.7
48776.6
50552.4
51561.6
52107.9
52390.9
52531.5
52598.8
52630
52643.9
52650
52652.5
52653.6
52654
52654.2
52654.3
52654.3
52654.4
52654.4
52654.5
52654.5
52654.7
52654.8
52655.1
52655.7
52656.8
52659.2
52664.8
52678.1
52709.4
52782
52945.9
53305
54065.4
55618.1
58669.1
64438.6
74959.1
93565.4
125867
182323
286307
502252
1.05663e+06
3.10201e+06
1.79872e+07
11794.9
24483.3
33379.5
39613.6
43987.9
46865.4
48603.4
49598.1
50140.2
50422.6
50563.8
50631.7
50663.3
50677.5
50683.7
50686.4
50687.5
50687.9
50688.1
50688.2
50688.2
50688.3
50688.3
50688.4
50688.5
50688.7
50689
50689.5
50690.3
50691.7
50694.5
50700.5
50714.4
50746.8
50821.1
50988.3
51353.3
52124.4
53694.9
56774.6
62585.7
73156
91817.2
124169
180652
284639
500642
1.05535e+06
3.10146e+06
1.79872e+07
11651.2
24052.5
32727.9
38798.4
43065.5
45894.7
47610.9
48596.9
49136.1
49417.9
49559.3
49627.5
49659.3
49673.6
49679.9
49682.6
49683.7
49684.2
49684.4
49684.5
49684.5
49684.6
49684.7
49684.8
49685
49685.4
49685.9
49686.7
49687.9
49689.8
49693.1
49699.8
49714.2
49746.9
49821.3
49987.8
50350.2
51114.5
52669.8
55719.8
61478
71927.2
90370.3
122351
178218
281222
495838
1.04929e+06
3.09625e+06
1.79872e+07
11583.1
23844.9
32410.3
38396.3
42607.9
45412.2
47117.7
48099.4
48637.2
48918.7
49060.1
49128.5
49160.4
49174.8
49181.1
49183.8
49185
49185.4
49185.6
49185.7
49185.8
49185.9
49186
49186.3
49186.7
49187.4
49188.3
49189.7
49191.7
49194.5
49198.7
49206.2
49221.3
49254.2
49327.6
49490.5
49844
50587.9
52100.8
55071.7
60726.6
70903.1
88869.7
119998
174261
274010
481626
1.02017e+06
3.04087e+06
1.79872e+07
11551
23745.5
32256.3
38199.4
42377.3
45169.4
46871.9
47852.4
48389.9
48671.4
48812.9
48881.3
48913.3
48927.8
48934.2
48936.9
48938
48938.5
48938.7
48938.8
48938.9
48939.1
48939.3
48939.8
48940.6
48941.7
48943.5
48945.9
48949.2
48953.5
48959.4
48968.4
48984.6
49017.7
49089.6
49247.5
49588.2
50302.8
51749.5
54564.5
58427.4
67229.7
82465
108887
154474
235837
395452
770313
2.00883e+06
1.20424e+07
11535.2
23695.9
32178.7
38100.1
42248.7
45035.2
46740.2
47721.5
48259.3
48541
48682.6
48751.1
48783.1
48797.6
48804
48806.7
48807.9
48808.4
48808.6
48808.7
48808.9
48809.1
48809.6
48810.4
48811.7
48813.8
48816.8
48821
48826.5
48833.4
48842
48853.5
48871.6
48905.4
48976
49128.5
49455.8
50141.1
51529.9
54243.9
57976.6
66443.8
81152.4
106632
150480
228470
381388
746433
2.01425e+06
1.24057e+07
11526.4
23667.6
32133.8
38042.4
42161.3
44944.2
46654.3
47637.3
48175.5
48457.4
48599
48667.6
48699.6
48714.1
48720.5
48723.3
48724.4
48724.9
48725.2
48725.3
48725.6
48726
48726.8
48728.2
48730.4
48733.9
48739
48746.1
48755.2
48766.3
48779.1
48794.5
48815.6
48850.9
48920.7
49068.1
49382.6
50040.1
51373.8
53985.5
57592.1
65753.7
79979
104628
147071
222786
371637
730000
1.9888e+06
1.23852e+07
11520
23646.9
32100.3
37997.9
42087.5
44865.8
46580.3
47564.5
48102.9
48384.6
48526.2
48594.7
48626.8
48641.3
48647.7
48650.4
48651.6
48652.1
48652.4
48652.6
48653
48653.7
48655
48657.1
48660.8
48666.5
48674.9
48686.5
48701.2
48718.6
48737.9
48758.9
48784.3
48822.1
48891.7
49034.9
49337.5
49969.3
51251.5
53766.6
57255.7
65133.3
78917.2
102813
143858
229919
386214
765736
2.12092e+06
1.69429e+07
11514.2
23627.7
32068.5
37953.6
42015
44785.7
46501.5
47485.3
48023
48304.3
48445.6
48514
48546
48560.5
48566.9
48569.6
48570.8
48571.3
48571.7
48572
48572.6
48573.6
48575.6
48579
48584.7
48593.8
48607.1
48625.5
48648.6
48675.2
48703.4
48732.1
48763.1
48804.3
48874.4
49014
49306
49914.3
51149.8
53577.2
56957.4
64578.3
77965.6
101215
141215
225166
377208
745070
2.07418e+06
1.69164e+07
11508.3
23607.9
32034.9
37905.2
41939.1
44698.1
46410.7
47391.5
47927.2
48207.3
48348.1
48416.2
48448.2
48462.7
48469.1
48471.8
48473
48473.6
48474
48474.4
48475.3
48476.8
48479.7
48484.8
48493.5
48507.3
48527.7
48555.8
48590.8
48630.3
48670.3
48708.4
48746.2
48791.3
48862.5
48999.1
49281.6
49868.6
51061.2
53407.6
56684.1
64072.3
77096.6
99779.5
138929
221418
371470
736957
2.06694e+06
1.69157e+07
11502.3
23587.8
31999.9
37853.4
41860.3
44602.6
46306.2
47280.8
47812.8
48091.1
48231
48298.9
48330.8
48345.3
48351.7
48354.4
48355.7
48356.2
48356.7
48357.3
48358.4
48360.6
48364.7
48372
48384.5
48404.8
48435
48476.6
48527.9
48584.3
48638.3
48686.8
48731.7
48780.9
48853.3
48987.4
49261.4
49828.9
50981.9
53252.3
56428.5
63593
76257.7
98366.3
136630
217392
364618
722939
2.02458e+06
1.67948e+07
11496.8
23568.6
31966.1
37802.3
41782.9
44503.3
46191.7
47156.8
47683.8
47959.7
48098.8
48166.4
48198.2
48212.7
48219.1
48221.9
48223.1
48223.7
48224.3
48225
48226.5
48229.3
48234.8
48244.7
48262.1
48290.5
48333.6
48393.2
48466.2
48541.6
48609.7
48668.1
48719.5
48772.5
48846
48977.9
49244.4
49794.8
50912.1
53112.2
56196
63133.3
75419.3
96872.2
133998
212069
354073
695671
2.0756e+06
1.19267e+07
11492.6
23552.7
31937.4
37757.9
41715.2
44409.2
46078.1
47032.1
47553.8
47827.6
47965.9
48033.3
48065.1
48079.6
48086
48088.9
48090.1
48090.8
48091.4
48092.3
48094.1
48097.6
48104.4
48117.2
48139.8
48177.9
48237.1
48320.3
48415.9
48507.6
48587.2
48653.7
48710.2
48766.2
48840.5
48970.6
49231.2
49767.6
50855.3
52995.8
56006
62716.9
74620.5
95343.8
131021
205131
338371
657610
1.98843e+06
1.18241e+07
11490.2
23542.1
31917.7
37727
41667
44334.7
45984.3
46928.9
47446.5
47718.9
47856.8
47924.2
47956
47970.6
47977.1
47979.9
47981.2
47981.9
47982.5
47983.6
47985.6
47989.6
47997.6
48012.7
48040.3
48088.5
48167
48271.3
48382.3
48485.1
48572.7
48644.4
48704.3
48762.2
48837
48966
49222.5
49749.5
50817
52916.1
55884.8
62397.3
73978.7
94034.6
128220
197741
317346
582811
1.29174e+06
5.51335e+06
11488.9
23538.2
31910.7
37716.1
41649.7
44301.6
45940.7
46881.1
47397.4
47669.4
47807.3
47874.7
47906.6
47921.2
47927.7
47930.6
47931.9
47932.6
47933.2
47934.3
47936.4
47940.7
47949.1
47965.2
47995.5
48051.7
48141.3
48253.2
48370.1
48477.1
48567.5
48641.1
48702.3
48760.8
48835.8
48964.4
49219.5
49743.1
50803.5
52887.7
55860
62241.9
73657.7
93352
126663
193731
303899
522883
966517
1.9766e+06
11489.4
23541.8
31917.8
37727.2
41667.3
44335
45984.5
46929
47446.7
47719
47856.9
47924.3
47956.1
47970.7
47977.2
47980
47981.3
47982
47982.6
47983.7
47985.7
47989.7
47997.7
48012.7
48040.2
48088.3
48166.4
48270.4
48381.6
48484.8
48572.5
48644.3
48704.4
48762.3
48837.1
48966.1
49222.7
49749.7
50817.3
52916.7
55937.7
62296.7
73772.5
93600.1
127237
196310
312524
561857
1.22986e+06
4.58406e+06
11491.7
23552.5
31937.5
37758.2
41715.6
44409.6
46078.4
47032.4
47554
47827.8
47966
48033.4
48065.2
48079.7
48086.2
48089
48090.2
48090.9
48091.5
48092.4
48094.2
48097.7
48104.5
48117.1
48139.6
48177.4
48236.2
48318.4
48414.4
48506.9
48587
48653.6
48710.3
48766.3
48840.6
48970.8
49231.4
49767.8
50855.6
52996.6
56097.9
62545.3
74281
94665.1
129603
203369
333572
642672
1.63973e+06
1.17258e+07
11496.4
23568.5
31966.3
37802.6
41783.2
44503.5
46191.9
47157
47683.9
47959.9
48098.9
48166.5
48198.3
48212.7
48219.2
48222
48223.2
48223.8
48224.3
48225.1
48226.6
48229.4
48234.8
48244.7
48261.9
48290.1
48332.9
48392.1
48465.3
48541.1
48609.5
48668.1
48719.6
48772.7
48846.1
48978
49244.5
49794.9
50912.2
53112.7
56312.4
62921.1
75020.2
96129.5
132600
210632
350913
688407
1.74993e+06
1.19208e+07
11502.2
23587.8
32000.1
37853.6
41860.5
44602.7
46306.2
47280.8
47812.8
48091.1
48231
48298.9
48330.8
48345.3
48351.7
48354.4
48355.7
48356.2
48356.7
48357.3
48358.4
48360.6
48364.6
48371.9
48384.3
48404.4
48434.5
48475.9
48527.3
48583.9
48638.1
48686.8
48731.7
48781.1
48853.4
48987.5
49261.4
49828.8
50981.7
53252.2
56557.2
63363.4
75847.7
97657.5
135430
216355
362526
716980
1.99384e+06
1.63319e+07
11508.3
23608.1
32035
37905.3
41939.2
44698.1
46410.6
47391.5
47927.1
48207.2
48348
48416.2
48448.1
48462.6
48469
48471.8
48473
48473.5
48473.9
48474.4
48475.2
48476.7
48479.6
48484.7
48493.3
48507
48527.4
48555.4
48590.5
48630
48670.2
48708.4
48746.3
48791.5
48862.6
48999.2
49281.5
49868.3
51060.5
53406.8
56820.1
63831.8
76683
99100.1
137861
220620
370169
734666
2.06327e+06
1.69147e+07
11514.3
23627.9
32068.7
37953.7
42015
44785.6
46501.4
47485.2
48022.9
48304.2
48445.5
48513.9
48545.9
48560.4
48566.8
48569.5
48570.7
48571.2
48571.6
48571.9
48572.5
48573.5
48575.5
48578.9
48584.6
48593.6
48606.9
48625.2
48648.4
48675.1
48703.4
48732.1
48763.2
48804.4
48874.6
49014.1
49305.9
49913.8
51148.7
53575.5
57103
64319.6
77526.3
100499
140092
224292
375769
742782
2.07213e+06
1.69163e+07
11520.2
23647.2
32100.6
37998.1
42087.6
44865.7
46580.2
47564.3
48102.8
48384.5
48526.1
48594.6
48626.7
48641.2
48647.6
48650.3
48651.5
48652
48652.3
48652.5
48652.9
48653.6
48654.8
48657
48660.7
48666.4
48674.8
48686.4
48701.2
48718.6
48737.9
48759
48784.4
48822.3
48891.9
49035
49337.5
49968.7
51250.1
53764.1
57418
64844.8
78426.7
101994
142502
228668
383555
758115
2.0967e+06
1.69199e+07
11526.6
23668
32134.3
38042.8
42161.5
44944.2
46654.2
47637.2
48175.5
48457.3
48599
48667.5
48699.6
48714.1
48720.5
48723.2
48724.4
48724.8
48725.1
48725.3
48725.5
48726
48726.7
48728.1
48730.3
48733.8
48738.9
48746
48755.2
48766.2
48779.2
48794.6
48815.7
48851.1
48920.9
49068.5
49382.8
50039.9
51372.7
53982.8
57778.1
65430.9
79431.4
103700
145473
220202
366216
715412
1.93323e+06
1.21639e+07
11535.5
23696.5
32179.5
38100.7
42249
45035.3
46740.2
47721.5
48259.3
48541
48682.6
48751.1
48783.1
48797.6
48804
48806.7
48807.8
48808.3
48808.5
48808.7
48808.8
48809.1
48809.6
48810.4
48811.7
48813.7
48816.8
48821
48826.5
48833.4
48842.1
48853.6
48871.8
48905.7
48976.4
49129.1
49456.5
50141.9
51530.5
54243.7
58193.5
66087.1
80549.2
105604
148733
225535
376516
739334
2.00767e+06
1.24058e+07
11551.4
23746.5
32257.5
38200.4
42377.9
45169.8
46872.1
47852.5
48389.9
48671.4
48812.9
48881.4
48913.3
48927.8
48934.2
48936.9
48938
48938.5
48938.7
48938.8
48938.9
48939.1
48939.3
48939.8
48940.6
48941.7
48943.5
48945.9
48949.2
48953.5
48959.5
48968.5
48984.8
49018
49090.2
49248.3
49589.5
50304.8
51752.5
54567.8
58715
66818.8
81784
107721
152386
231852
387338
755159
2.0169e+06
1.23779e+07
11584
23846.6
32412.2
38397.9
42609
45412.8
47118.1
48099.6
48637.3
48918.8
49060.2
49128.5
49160.4
49174.8
49181.2
49183.9
49185
49185.5
49185.7
49185.8
49185.8
49185.9
49186.1
49186.4
49186.8
49187.4
49188.4
49189.8
49191.8
49194.5
49198.8
49206.4
49221.6
49254.6
49328.2
49491.5
49845.6
50590.5
52104.7
55076.1
60727.7
70897.8
88857.5
119981
174243
273998
481620
1.02017e+06
3.04087e+06
1.79872e+07
11653
24055.1
32730.7
38800.7
43067.1
45895.7
47611.5
48597.3
49136.3
49418.1
49559.4
49627.6
49659.4
49673.7
49680
49682.7
49683.8
49684.3
49684.5
49684.6
49684.6
49684.7
49684.8
49684.9
49685.1
49685.5
49686
49686.9
49688
49689.9
49693.3
49700
49714.5
49747.3
49821.9
49988.7
50351.6
51116.6
52672.8
55722.5
61477
71918.7
90353.8
122329
178197
281207
495830
1.04929e+06
3.09625e+06
1.79872e+07
11798.2
24487.2
33383.2
39616.6
43990
46866.8
48604.2
49598.6
50140.5
50422.8
50564
50631.9
50663.5
50677.7
50683.9
50686.6
50687.7
50688.1
50688.3
50688.4
50688.4
50688.5
50688.5
50688.6
50688.7
50688.9
50689.2
50689.7
50690.5
50691.9
50694.7
50700.8
50714.7
50747.1
50821.5
50988.8
51354.1
52125.3
53695.8
56774.4
62582.1
73146.4
91801.1
124149
180633
284626
500636
1.05535e+06
3.10146e+06
1.79872e+07
12096.7
25363.6
34692.6
41237.1
45815
48778
50553.3
51562.1
52108.3
52391.1
52531.8
52599.1
52630.2
52644.2
52650.3
52652.8
52653.9
52654.3
52654.5
52654.6
52654.6
52654.7
52654.7
52654.8
52654.8
52655
52655.1
52655.4
52656
52657.1
52659.5
52665.1
52678.4
52709.7
52782.3
52946.1
53305
54065
55616.9
58666.5
64433
74949.4
93551.9
125852
182310
286298
502248
1.05663e+06
3.10201e+06
1.79872e+07
12694.4
27097.7
37257.7
44392.4
49318.6
52420.6
54254.4
55283.3
55833.8
56115.9
56254.8
56320.8
56351
56364.5
56370.3
56372.8
56373.8
56374.2
56374.4
56374.5
56374.5
56374.5
56374.6
56374.6
56374.7
56374.7
56374.9
56375.1
56375.5
56376.4
56378.6
56383.7
56396
56425.3
56493.7
56649
56990.9
57718.3
59210.7
62157.5
67757.5
78020.9
96264.5
128101
184029
287491
502976
1.05697e+06
3.10209e+06
1.79872e+07
13866.5
30454
42177.6
50358.8
55804.8
59124.1
61037.4
62087.3
62638.3
62915.9
63050.5
63113.6
63142.2
63154.8
63160.2
63162.5
63163.4
63163.8
63163.9
63164
63164.1
63164.1
63164.1
63164.2
63164.2
63164.3
63164.4
63164.6
63164.9
63165.7
63167.6
63172.1
63183.1
63209.4
63271.1
63412.1
63724.5
64393.8
65776.8
68528.8
73801.7
83550.5
101044
131891
186682
289045
503678
1.05718e+06
3.10212e+06
1.79872e+07
16142.8
36843.5
51373
61271.5
67460.9
71062.2
73056.8
74114.6
74653.9
74919
75044.9
75102.8
75128.7
75139.9
75144.7
75146.7
75147.5
75147.8
75148
75148
75148.1
75148.1
75148.2
75148.2
75148.3
75148.4
75148.5
75148.6
75148.9
75149.6
75151.2
75154.9
75164.2
75186.4
75238.9
75359.8
75629.6
76212.7
77429.5
79877.4
84624.8
93522.3
109738
138851
191580
291890
504909
1.05751e+06
3.10215e+06
1.79872e+07
20613.9
48996.5
68435.9
80753.5
87849.8
91724.4
93754.9
94782.6
95286.5
95526.2
95637
95686.8
95708.7
95718
95721.9
95723.5
95724.2
95724.4
95724.6
95724.6
95724.7
95724.8
95724.8
95724.9
95725
95725.1
95725.2
95725.3
95725.6
95726.2
95727.4
95730.4
95737.5
95754.9
95796.3
95892
96107.7
96578.6
97573.1
99602
103602
111248
125514
151857
201103
297695
507552
1.05824e+06
3.10224e+06
1.79872e+07
29707.5
72340.3
99562
114886
122884
126890
128842
129772
130206
130405
130493
130532
130549
130556
130559
130560
130560
130560
130561
130561
130561
130561
130561
130561
130561
130561
130561
130561
130562
130562
130563
130565
130570
130583
130612
130680
130835
131177
131910
133430
136488
142490
154070
176360
220089
310166
513763
1.06013e+06
3.10246e+06
1.79872e+07
49421.8
118432
156556
175038
183515
187315
189004
189752
190080
190224
190286
190312
190323
190327
190329
190330
190330
190330
190331
190331
190331
190331
190331
190331
190331
190331
190331
190331
190332
190332
190333
190334
190337
190345
190363
190405
190502
190717
191184
192170
194204
198328
206644
223602
259273
338449
529673
1.06569e+06
3.10318e+06
1.79872e+07
96812
213689
265493
286096
294063
297163
298393
298891
299095
299180
299215
299230
299235
299238
299239
299239
299240
299240
299240
299240
299240
299240
299240
299240
299240
299240
299241
299241
299241
299241
299242
299242
299244
299248
299257
299279
299329
299440
299683
300206
301313
303642
308600
319490
344669
406949
574375
1.08469e+06
3.10621e+06
1.79872e+07
228819
430757
495766
515410
521452
523408
524082
524327
524421
524458
524472
524478
524481
524482
524482
524482
524482
524482
524482
524482
524483
524483
524483
524483
524483
524483
524483
524483
524484
524484
524484
524485
524486
524487
524491
524500
524519
524562
524657
524864
525311
526287
528493
533777
547547
587076
712588
1.15998e+06
3.12319e+06
1.79872e+07
679451
1.01705e+06
1.08459e+06
1.09829e+06
1.10134e+06
1.10211e+06
1.10234e+06
1.10241e+06
1.10244e+06
1.10245e+06
1.10245e+06
1.10245e+06
1.10245e+06
1.10245e+06
1.10245e+06
1.10245e+06
1.10245e+06
1.10245e+06
1.10245e+06
1.10245e+06
1.10245e+06
1.10245e+06
1.10245e+06
1.10245e+06
1.10245e+06
1.10245e+06
1.10245e+06
1.10245e+06
1.10245e+06
1.10245e+06
1.10245e+06
1.10245e+06
1.10246e+06
1.10246e+06
1.10246e+06
1.10246e+06
1.10246e+06
1.10248e+06
1.1025e+06
1.10255e+06
1.10266e+06
1.10292e+06
1.10351e+06
1.10508e+06
1.10973e+06
1.12593e+06
1.19187e+06
1.50334e+06
3.24976e+06
1.79872e+07
2.70017e+06
3.18573e+06
3.23006e+06
3.23472e+06
3.23535e+06
3.23546e+06
3.23549e+06
3.2355e+06
3.2355e+06
3.2355e+06
3.2355e+06
3.2355e+06
3.2355e+06
3.2355e+06
3.2355e+06
3.2355e+06
3.2355e+06
3.2355e+06
3.2355e+06
3.2355e+06
3.2355e+06
3.2355e+06
3.2355e+06
3.2355e+06
3.2355e+06
3.2355e+06
3.2355e+06
3.23551e+06
3.23551e+06
3.23551e+06
3.23551e+06
3.23551e+06
3.23551e+06
3.23551e+06
3.23551e+06
3.23551e+06
3.23551e+06
3.23551e+06
3.23552e+06
3.23552e+06
3.23554e+06
3.23557e+06
3.23563e+06
3.23581e+06
3.23641e+06
3.2389e+06
3.25304e+06
3.3621e+06
4.43127e+06
1.79872e+07
1.87595e+07
1.87595e+07
1.87595e+07
1.87595e+07
1.87595e+07
1.87595e+07
1.87595e+07
1.87595e+07
1.87595e+07
1.87595e+07
1.87595e+07
1.87595e+07
1.87595e+07
1.87595e+07
1.87595e+07
1.87595e+07
1.87595e+07
1.87595e+07
1.87595e+07
1.87595e+07
1.87595e+07
1.87595e+07
1.87595e+07
1.87595e+07
1.87595e+07
1.87595e+07
1.87595e+07
1.87595e+07
1.87595e+07
1.87595e+07
1.87595e+07
1.87595e+07
1.87595e+07
1.87595e+07
1.87595e+07
1.87595e+07
1.87595e+07
1.87595e+07
1.87595e+07
1.87595e+07
1.87595e+07
1.87595e+07
1.87595e+07
1.87595e+07
1.87595e+07
1.87595e+07
1.87595e+07
1.87595e+07
1.87595e+07
1.87595e+07
6.64466e+07
6.76662e+07
6.76672e+07
6.76776e+07
6.76907e+07
6.75517e+07
6.76419e+07
6.76442e+07
6.76442e+07
6.76442e+07
6.76442e+07
6.76442e+07
6.76442e+07
6.76439e+07
6.76494e+07
6.77468e+07
6.76879e+07
6.76729e+07
6.76408e+07
6.76636e+07
3.10501e+06
3.31597e+06
3.3243e+06
3.32372e+06
3.31498e+06
3.25283e+06
3.21344e+06
3.21702e+06
3.21718e+06
3.2172e+06
3.2172e+06
3.2172e+06
3.21719e+06
3.21527e+06
3.24182e+06
3.30705e+06
3.32583e+06
3.32526e+06
3.32234e+06
3.25291e+06
1.15726e+07
1.195e+07
1.19509e+07
1.19386e+07
1.19247e+07
1.21999e+07
1.18621e+07
1.1712e+07
1.17123e+07
1.17123e+07
1.17121e+07
1.17123e+07
1.17125e+07
1.17419e+07
1.22082e+07
1.18637e+07
1.18418e+07
1.19467e+07
1.19513e+07
1.19097e+07
1.87595e+07
1.87595e+07
1.87595e+07
1.87595e+07
1.87595e+07
1.87595e+07
1.87595e+07
1.87595e+07
1.87595e+07
1.87595e+07
1.87595e+07
1.87595e+07
1.87595e+07
1.87595e+07
1.87595e+07
1.87595e+07
1.87595e+07
1.87595e+07
1.87595e+07
1.87595e+07
1.87595e+07
1.87595e+07
1.87595e+07
1.87595e+07
1.87595e+07
1.87595e+07
1.87595e+07
1.87595e+07
1.87595e+07
1.87595e+07
1.87595e+07
1.87595e+07
1.87595e+07
1.87595e+07
1.87595e+07
1.87595e+07
1.87595e+07
1.87595e+07
1.87595e+07
1.87595e+07
1.87595e+07
1.87595e+07
1.87595e+07
1.87595e+07
1.87595e+07
1.87595e+07
1.87595e+07
1.87595e+07
1.87595e+07
1.87595e+07
1.87595e+07
1.87595e+07
1.87595e+07
1.87595e+07
1.87595e+07
1.87595e+07
1.87595e+07
1.87595e+07
1.87595e+07
1.87595e+07
1.87595e+07
1.87595e+07
1.87595e+07
1.87595e+07
1.87595e+07
1.87595e+07
1.87595e+07
1.87595e+07
1.87595e+07
1.87595e+07
1.87595e+07
1.87595e+07
1.87595e+07
1.87595e+07
1.87595e+07
1.87595e+07
1.87595e+07
1.87595e+07
1.87595e+07
1.87595e+07
1.87595e+07
1.87595e+07
1.87595e+07
1.87595e+07
1.87595e+07
1.87595e+07
1.87595e+07
1.87595e+07
1.87595e+07
1.87595e+07
1.87595e+07
1.87595e+07
1.87595e+07
1.87595e+07
1.87595e+07
1.87595e+07
1.87595e+07
1.87595e+07
1.87595e+07
1.87595e+07
1.79872e+07
4.43127e+06
3.36208e+06
3.25302e+06
3.23887e+06
3.23639e+06
3.23579e+06
3.23561e+06
3.23555e+06
3.23552e+06
3.23551e+06
3.2355e+06
3.2355e+06
3.2355e+06
3.2355e+06
3.2355e+06
3.2355e+06
3.2355e+06
3.2355e+06
3.2355e+06
3.2355e+06
3.2355e+06
3.2355e+06
3.2355e+06
3.2355e+06
3.2355e+06
3.2355e+06
3.2355e+06
3.2355e+06
3.2355e+06
3.2355e+06
3.2355e+06
3.2355e+06
3.2355e+06
3.2355e+06
3.2355e+06
3.2355e+06
3.2355e+06
3.2355e+06
3.2355e+06
3.2355e+06
3.2355e+06
3.2355e+06
3.2355e+06
3.2355e+06
3.2355e+06
3.2355e+06
3.2355e+06
3.2355e+06
3.2355e+06
3.2355e+06
3.2355e+06
3.2355e+06
3.2355e+06
3.2355e+06
3.2355e+06
3.2355e+06
3.2355e+06
3.2355e+06
3.2355e+06
3.2355e+06
3.2355e+06
3.2355e+06
3.2355e+06
3.2355e+06
3.2355e+06
3.2355e+06
3.2355e+06
3.2355e+06
3.2355e+06
3.2355e+06
3.2355e+06
3.2355e+06
3.2355e+06
3.2355e+06
3.2355e+06
3.2355e+06
3.2355e+06
3.2355e+06
3.2355e+06
3.2355e+06
3.2355e+06
3.2355e+06
3.2355e+06
3.2355e+06
3.2355e+06
3.2355e+06
3.2355e+06
3.2355e+06
3.2355e+06
3.2355e+06
3.2355e+06
3.2355e+06
3.2355e+06
3.2355e+06
3.2355e+06
3.2355e+06
3.2355e+06
3.2355e+06
3.2355e+06
1.79872e+07
3.24978e+06
1.50334e+06
1.19186e+06
1.12592e+06
1.10972e+06
1.10506e+06
1.1035e+06
1.1029e+06
1.10265e+06
1.10254e+06
1.10249e+06
1.10247e+06
1.10246e+06
1.10245e+06
1.10245e+06
1.10245e+06
1.10245e+06
1.10245e+06
1.10245e+06
1.10245e+06
1.10245e+06
1.10245e+06
1.10245e+06
1.10245e+06
1.10245e+06
1.10245e+06
1.10245e+06
1.10245e+06
1.10245e+06
1.10245e+06
1.10245e+06
1.10245e+06
1.10245e+06
1.10245e+06
1.10245e+06
1.10245e+06
1.10245e+06
1.10245e+06
1.10245e+06
1.10245e+06
1.10245e+06
1.10245e+06
1.10245e+06
1.10245e+06
1.10245e+06
1.10245e+06
1.10245e+06
1.10245e+06
1.10245e+06
1.10245e+06
1.10245e+06
1.10245e+06
1.10245e+06
1.10245e+06
1.10245e+06
1.10245e+06
1.10245e+06
1.10245e+06
1.10245e+06
1.10245e+06
1.10245e+06
1.10245e+06
1.10245e+06
1.10245e+06
1.10245e+06
1.10245e+06
1.10245e+06
1.10245e+06
1.10245e+06
1.10245e+06
1.10245e+06
1.10245e+06
1.10245e+06
1.10245e+06
1.10245e+06
1.10245e+06
1.10245e+06
1.10245e+06
1.10245e+06
1.10245e+06
1.10245e+06
1.10245e+06
1.10245e+06
1.10245e+06
1.10245e+06
1.10245e+06
1.10245e+06
1.10245e+06
1.10245e+06
1.10245e+06
1.10245e+06
1.10245e+06
1.10245e+06
1.10245e+06
1.10245e+06
1.10245e+06
1.10245e+06
1.10245e+06
1.10245e+06
1.79872e+07
3.12322e+06
1.15999e+06
712589
587071
547538
533767
528482
526276
525300
524854
524648
524553
524511
524492
524484
524481
524480
524480
524480
524480
524480
524480
524480
524480
524481
524481
524481
524481
524481
524481
524481
524481
524481
524481
524481
524481
524481
524481
524481
524482
524482
524482
524482
524482
524482
524482
524482
524482
524482
524482
524482
524482
524482
524482
524482
524482
524482
524482
524482
524482
524482
524482
524482
524482
524482
524482
524482
524482
524482
524482
524482
524482
524482
524482
524482
524482
524482
524482
524482
524482
524482
524482
524482
524482
524482
524482
524482
524482
524482
524482
524482
524482
524481
524481
524481
524480
524478
524476
524473
1.79872e+07
3.10624e+06
1.0847e+06
574382
406950
344665
319483
308591
303633
301303
300197
299674
299431
299321
299272
299251
299242
299239
299237
299237
299237
299237
299237
299237
299238
299238
299238
299238
299238
299238
299238
299238
299238
299238
299238
299238
299239
299239
299239
299239
299239
299239
299239
299239
299239
299239
299239
299239
299239
299239
299239
299239
299239
299239
299239
299239
299239
299239
299239
299239
299239
299239
299239
299239
299239
299239
299239
299239
299239
299239
299239
299239
299239
299239
299239
299239
299239
299239
299239
299239
299239
299239
299239
299239
299239
299239
299239
299239
299239
299239
299239
299239
299238
299238
299238
299237
299235
299232
299228
299223
1.79872e+07
3.10321e+06
1.0657e+06
529685
338455
259274
223599
206639
198321
194196
192162
191176
190709
190494
190398
190357
190339
190332
190329
190328
190328
190328
190328
190328
190328
190329
190329
190329
190329
190329
190329
190329
190329
190329
190329
190329
190329
190329
190329
190329
190329
190329
190329
190329
190329
190329
190329
190329
190329
190329
190329
190329
190329
190329
190329
190329
190329
190329
190329
190329
190329
190329
190329
190329
190329
190329
190329
190329
190329
190329
190329
190329
190329
190329
190329
190329
190329
190329
190329
190329
190329
190329
190329
190329
190329
190329
190329
190329
190329
190329
190329
190329
190329
190328
190328
190326
190323
190319
190314
190307
1.79872e+07
3.10249e+06
1.06015e+06
513778
310176
220095
176361
154068
142486
136483
133423
131904
131171
130829
130675
130607
130578
130566
130561
130560
130559
130559
130559
130559
130559
130559
130559
130559
130560
130560
130560
130560
130560
130560
130560
130560
130560
130560
130560
130560
130560
130560
130560
130560
130560
130560
130560
130560
130560
130560
130560
130559
130559
130559
130559
130559
130559
130559
130559
130559
130559
130559
130559
130559
130559
130559
130559
130559
130559
130559
130559
130559
130559
130559
130559
130559
130559
130559
130559
130559
130559
130559
130559
130559
130559
130559
130559
130559
130559
130559
130559
130559
130559
130558
130557
130556
130553
130549
130544
130537
1.79872e+07
3.10227e+06
1.05826e+06
507569
297709
201113
151863
125516
111247
103600
99598.3
97569.1
96574.6
96104
95888.7
95793.3
95752.4
95735.4
95728.5
95725.8
95724.9
95724.5
95724.5
95724.5
95724.6
95724.7
95724.8
95724.8
95724.9
95725
95725
95725.1
95725.1
95725.2
95725.2
95725.2
95725.2
95725.3
95725.3
95725.3
95725.3
95725.3
95725.3
95725.3
95725.2
95725.2
95725.1
95724.9
95724.8
95724.5
95724.3
95724.1
95723.8
95723.7
95723.6
95723.5
95723.5
95723.4
95723.4
95723.4
95723.4
95723.4
95723.4
95723.4
95723.4
95723.4
95723.4
95723.4
95723.4
95723.4
95723.4
95723.4
95723.4
95723.4
95723.4
95723.4
95723.4
95723.4
95723.4
95723.4
95723.4
95723.4
95723.4
95723.4
95723.4
95723.4
95723.4
95723.4
95723.4
95723.4
95723.3
95723.2
95723
95722.5
95721.7
95720.4
95718.6
95716.1
95712.7
95707.3
1.79872e+07
3.10219e+06
1.05753e+06
504928
291907
191594
138861
109744
93524.9
84625.3
79876.8
77428.7