/*--------------------------------*- C++ -*----------------------------------*\
| =========                 |                                                 |
| \\      /  F ield         | foam-extend: Open Source CFD                    |
|  \\    /   O peration     | Version:     4.0                                |
|   \\  /    A nd           | Web:         http://www.foam-extend.org         |
|    \\/     M anipulation  |                                                 |
\*---------------------------------------------------------------------------*/
FoamFile
{
    version     2.0;
    format      ascii;
    class       volScalarField;
    location    "0.0001";
    object      pd;
}
// * * * * * * * * * * * * * * * * * * * * * * * * * * * * * * * * * * * * * //

dimensions      [1 -1 -2 0 0 0 0];

internalField   nonuniform List<scalar> 
28770
(
2.99823e+07
2.9947e+07
2.99116e+07
2.98763e+07
2.9841e+07
2.98057e+07
2.97704e+07
2.97352e+07
2.97e+07
2.96648e+07
2.96297e+07
2.95946e+07
2.95596e+07
2.95247e+07
2.94899e+07
2.94551e+07
2.94205e+07
2.9386e+07
2.93517e+07
2.93175e+07
2.92835e+07
2.92497e+07
2.92161e+07
2.91828e+07
2.91498e+07
2.91171e+07
2.90848e+07
2.90529e+07
2.90215e+07
2.89906e+07
2.89603e+07
2.89306e+07
2.89017e+07
2.88735e+07
2.88463e+07
2.88199e+07
2.87947e+07
2.87706e+07
2.87478e+07
2.87264e+07
2.87064e+07
2.86881e+07
2.86714e+07
2.86566e+07
2.86437e+07
2.86327e+07
2.86239e+07
2.86172e+07
2.86127e+07
2.86104e+07
2.99823e+07
2.9947e+07
2.99116e+07
2.98763e+07
2.9841e+07
2.98057e+07
2.97704e+07
2.97351e+07
2.96999e+07
2.96647e+07
2.96296e+07
2.95946e+07
2.95596e+07
2.95246e+07
2.94898e+07
2.9455e+07
2.94204e+07
2.93859e+07
2.93515e+07
2.93173e+07
2.92833e+07
2.92495e+07
2.92159e+07
2.91825e+07
2.91495e+07
2.91168e+07
2.90844e+07
2.90525e+07
2.9021e+07
2.89901e+07
2.89597e+07
2.89299e+07
2.89009e+07
2.88727e+07
2.88453e+07
2.88189e+07
2.87936e+07
2.87694e+07
2.87465e+07
2.8725e+07
2.87049e+07
2.86865e+07
2.86697e+07
2.86548e+07
2.86418e+07
2.86307e+07
2.86218e+07
2.86151e+07
2.86106e+07
2.86083e+07
2.99823e+07
2.9947e+07
2.99116e+07
2.98763e+07
2.98409e+07
2.98056e+07
2.97703e+07
2.97351e+07
2.96998e+07
2.96647e+07
2.96295e+07
2.95944e+07
2.95594e+07
2.95245e+07
2.94896e+07
2.94548e+07
2.94202e+07
2.93856e+07
2.93512e+07
2.9317e+07
2.92829e+07
2.9249e+07
2.92154e+07
2.9182e+07
2.91488e+07
2.91161e+07
2.90836e+07
2.90516e+07
2.902e+07
2.89889e+07
2.89584e+07
2.89286e+07
2.88994e+07
2.8871e+07
2.88435e+07
2.88169e+07
2.87914e+07
2.8767e+07
2.87439e+07
2.87221e+07
2.87018e+07
2.86832e+07
2.86662e+07
2.86511e+07
2.86379e+07
2.86268e+07
2.86177e+07
2.86109e+07
2.86063e+07
2.8604e+07
2.99823e+07
2.99469e+07
2.99116e+07
2.98762e+07
2.98409e+07
2.98055e+07
2.97702e+07
2.9735e+07
2.96997e+07
2.96645e+07
2.96294e+07
2.95942e+07
2.95592e+07
2.95242e+07
2.94893e+07
2.94545e+07
2.94198e+07
2.93852e+07
2.93508e+07
2.93164e+07
2.92823e+07
2.92483e+07
2.92146e+07
2.91811e+07
2.91479e+07
2.9115e+07
2.90824e+07
2.90503e+07
2.90185e+07
2.89873e+07
2.89566e+07
2.89265e+07
2.88971e+07
2.88685e+07
2.88407e+07
2.88138e+07
2.8788e+07
2.87633e+07
2.87399e+07
2.87178e+07
2.86973e+07
2.86783e+07
2.8661e+07
2.86456e+07
2.86321e+07
2.86207e+07
2.86115e+07
2.86045e+07
2.85998e+07
2.85974e+07
2.99823e+07
2.99469e+07
2.99115e+07
2.98762e+07
2.98408e+07
2.98054e+07
2.97701e+07
2.97348e+07
2.96996e+07
2.96643e+07
2.96291e+07
2.9594e+07
2.95589e+07
2.95239e+07
2.9489e+07
2.94541e+07
2.94193e+07
2.93847e+07
2.93501e+07
2.93158e+07
2.92815e+07
2.92475e+07
2.92136e+07
2.918e+07
2.91467e+07
2.91136e+07
2.90809e+07
2.90485e+07
2.90166e+07
2.89851e+07
2.89541e+07
2.89238e+07
2.88941e+07
2.88651e+07
2.8837e+07
2.88098e+07
2.87836e+07
2.87585e+07
2.87346e+07
2.87122e+07
2.86911e+07
2.86717e+07
2.8654e+07
2.86382e+07
2.86244e+07
2.86127e+07
2.86031e+07
2.85959e+07
2.85911e+07
2.85886e+07
2.99823e+07
2.99469e+07
2.99115e+07
2.98761e+07
2.98407e+07
2.98053e+07
2.977e+07
2.97347e+07
2.96994e+07
2.96641e+07
2.96289e+07
2.95937e+07
2.95586e+07
2.95235e+07
2.94885e+07
2.94536e+07
2.94188e+07
2.9384e+07
2.93494e+07
2.93149e+07
2.92806e+07
2.92464e+07
2.92124e+07
2.91787e+07
2.91451e+07
2.91119e+07
2.90789e+07
2.90463e+07
2.90141e+07
2.89824e+07
2.89511e+07
2.89204e+07
2.88904e+07
2.8861e+07
2.88324e+07
2.88048e+07
2.87781e+07
2.87525e+07
2.87281e+07
2.8705e+07
2.86834e+07
2.86635e+07
2.86453e+07
2.86289e+07
2.86146e+07
2.86025e+07
2.85926e+07
2.85851e+07
2.858e+07
2.85775e+07
2.99823e+07
2.99469e+07
2.99114e+07
2.9876e+07
2.98406e+07
2.98052e+07
2.97698e+07
2.97345e+07
2.96991e+07
2.96638e+07
2.96286e+07
2.95933e+07
2.95582e+07
2.9523e+07
2.9488e+07
2.9453e+07
2.94181e+07
2.93833e+07
2.93485e+07
2.93139e+07
2.92795e+07
2.92452e+07
2.9211e+07
2.91771e+07
2.91433e+07
2.91099e+07
2.90767e+07
2.90438e+07
2.90113e+07
2.89792e+07
2.89476e+07
2.89165e+07
2.8886e+07
2.88561e+07
2.8827e+07
2.87988e+07
2.87715e+07
2.87453e+07
2.87202e+07
2.86965e+07
2.86742e+07
2.86536e+07
2.86347e+07
2.86177e+07
2.86028e+07
2.85901e+07
2.85798e+07
2.85719e+07
2.85666e+07
2.8564e+07
2.99823e+07
2.99468e+07
2.99114e+07
2.98759e+07
2.98405e+07
2.98051e+07
2.97696e+07
2.97343e+07
2.96989e+07
2.96635e+07
2.96282e+07
2.9593e+07
2.95577e+07
2.95225e+07
2.94874e+07
2.94523e+07
2.94173e+07
2.93824e+07
2.93476e+07
2.93128e+07
2.92782e+07
2.92437e+07
2.92094e+07
2.91753e+07
2.91413e+07
2.91076e+07
2.90741e+07
2.90409e+07
2.90081e+07
2.89756e+07
2.89435e+07
2.89119e+07
2.88809e+07
2.88505e+07
2.88208e+07
2.87919e+07
2.87639e+07
2.8737e+07
2.87111e+07
2.86866e+07
2.86635e+07
2.8642e+07
2.86223e+07
2.86045e+07
2.85889e+07
2.85755e+07
2.85646e+07
2.85563e+07
2.85507e+07
2.85479e+07
2.99823e+07
2.99468e+07
2.99113e+07
2.98758e+07
2.98403e+07
2.98049e+07
2.97694e+07
2.9734e+07
2.96986e+07
2.96632e+07
2.96279e+07
2.95925e+07
2.95572e+07
2.9522e+07
2.94867e+07
2.94516e+07
2.94165e+07
2.93814e+07
2.93465e+07
2.93116e+07
2.92768e+07
2.92422e+07
2.92076e+07
2.91733e+07
2.91391e+07
2.9105e+07
2.90713e+07
2.90377e+07
2.90045e+07
2.89715e+07
2.8939e+07
2.89069e+07
2.88753e+07
2.88442e+07
2.88138e+07
2.87842e+07
2.87553e+07
2.87275e+07
2.87008e+07
2.86753e+07
2.86512e+07
2.86287e+07
2.8608e+07
2.85893e+07
2.85727e+07
2.85586e+07
2.8547e+07
2.85381e+07
2.85321e+07
2.85291e+07
2.99822e+07
2.99467e+07
2.99112e+07
2.98757e+07
2.98402e+07
2.98047e+07
2.97692e+07
2.97338e+07
2.96983e+07
2.96629e+07
2.96274e+07
2.95921e+07
2.95567e+07
2.95213e+07
2.9486e+07
2.94508e+07
2.94156e+07
2.93804e+07
2.93453e+07
2.93103e+07
2.92753e+07
2.92405e+07
2.92057e+07
2.91711e+07
2.91366e+07
2.91023e+07
2.90682e+07
2.90342e+07
2.90005e+07
2.89671e+07
2.8934e+07
2.89013e+07
2.88691e+07
2.88373e+07
2.88061e+07
2.87756e+07
2.87458e+07
2.8717e+07
2.86891e+07
2.86626e+07
2.86373e+07
2.86137e+07
2.85917e+07
2.85719e+07
2.85543e+07
2.85392e+07
2.85267e+07
2.85172e+07
2.85107e+07
2.85075e+07
2.99822e+07
2.99467e+07
2.99111e+07
2.98756e+07
2.98401e+07
2.98045e+07
2.9769e+07
2.97335e+07
2.9698e+07
2.96625e+07
2.9627e+07
2.95916e+07
2.95561e+07
2.95207e+07
2.94853e+07
2.94499e+07
2.94146e+07
2.93793e+07
2.93441e+07
2.93089e+07
2.92738e+07
2.92387e+07
2.92037e+07
2.91688e+07
2.9134e+07
2.90994e+07
2.90649e+07
2.90305e+07
2.89963e+07
2.89624e+07
2.89287e+07
2.88954e+07
2.88624e+07
2.88298e+07
2.87977e+07
2.87663e+07
2.87355e+07
2.87056e+07
2.86765e+07
2.86487e+07
2.86221e+07
2.85971e+07
2.85737e+07
2.85525e+07
2.85336e+07
2.85172e+07
2.85037e+07
2.84934e+07
2.84863e+07
2.84828e+07
2.99822e+07
2.99466e+07
2.99111e+07
2.98755e+07
2.98399e+07
2.98043e+07
2.97688e+07
2.97332e+07
2.96977e+07
2.96621e+07
2.96266e+07
2.9591e+07
2.95555e+07
2.952e+07
2.94845e+07
2.94491e+07
2.94136e+07
2.93782e+07
2.93428e+07
2.93074e+07
2.92721e+07
2.92368e+07
2.92016e+07
2.91664e+07
2.91313e+07
2.90963e+07
2.90614e+07
2.90266e+07
2.89919e+07
2.89574e+07
2.89231e+07
2.88891e+07
2.88553e+07
2.88219e+07
2.87888e+07
2.87563e+07
2.87242e+07
2.86931e+07
2.86625e+07
2.86334e+07
2.86049e+07
2.85785e+07
2.85535e+07
2.85307e+07
2.85102e+07
2.84924e+07
2.84777e+07
2.84663e+07
2.84586e+07
2.84546e+07
2.99822e+07
2.99466e+07
2.9911e+07
2.98754e+07
2.98398e+07
2.98041e+07
2.97685e+07
2.97329e+07
2.96973e+07
2.96617e+07
2.96261e+07
2.95905e+07
2.95549e+07
2.95193e+07
2.94837e+07
2.94482e+07
2.94126e+07
2.9377e+07
2.93415e+07
2.93059e+07
2.92704e+07
2.92349e+07
2.91994e+07
2.9164e+07
2.91285e+07
2.90931e+07
2.90578e+07
2.90225e+07
2.89874e+07
2.89523e+07
2.89173e+07
2.88825e+07
2.88479e+07
2.88135e+07
2.87794e+07
2.87458e+07
2.87124e+07
2.86799e+07
2.86479e+07
2.86171e+07
2.85871e+07
2.85586e+07
2.85317e+07
2.85069e+07
2.84845e+07
2.84649e+07
2.84486e+07
2.84359e+07
2.84272e+07
2.84228e+07
2.99822e+07
2.99465e+07
2.99109e+07
2.98752e+07
2.98396e+07
2.98039e+07
2.97683e+07
2.97326e+07
2.9697e+07
2.96613e+07
2.96257e+07
2.959e+07
2.95543e+07
2.95186e+07
2.9483e+07
2.94473e+07
2.94116e+07
2.93759e+07
2.93401e+07
2.93044e+07
2.92687e+07
2.9233e+07
2.91972e+07
2.91615e+07
2.91257e+07
2.90899e+07
2.90542e+07
2.90184e+07
2.89827e+07
2.8947e+07
2.89113e+07
2.88757e+07
2.88402e+07
2.88049e+07
2.87695e+07
2.87348e+07
2.86997e+07
2.8666e+07
2.86316e+07
2.85997e+07
2.85667e+07
2.85365e+07
2.85072e+07
2.84803e+07
2.84557e+07
2.8434e+07
2.84158e+07
2.84016e+07
2.83918e+07
2.83868e+07
2.99822e+07
2.99465e+07
2.99108e+07
2.98751e+07
2.98394e+07
2.98037e+07
2.97681e+07
2.97324e+07
2.96966e+07
2.96609e+07
2.96252e+07
2.95895e+07
2.95537e+07
2.9518e+07
2.94822e+07
2.94464e+07
2.94105e+07
2.93747e+07
2.93388e+07
2.93029e+07
2.9267e+07
2.9231e+07
2.9195e+07
2.9159e+07
2.91229e+07
2.90867e+07
2.90505e+07
2.90143e+07
2.8978e+07
2.89417e+07
2.89053e+07
2.88689e+07
2.88324e+07
2.8796e+07
2.87595e+07
2.87234e+07
2.86871e+07
2.86515e+07
2.86157e+07
2.85812e+07
2.8547e+07
2.85138e+07
2.8482e+07
2.84521e+07
2.84246e+07
2.84002e+07
2.83795e+07
2.83632e+07
2.83519e+07
2.83462e+07
2.99821e+07
2.99464e+07
2.99107e+07
2.9875e+07
2.98393e+07
2.98036e+07
2.97678e+07
2.97321e+07
2.96963e+07
2.96606e+07
2.96248e+07
2.9589e+07
2.95531e+07
2.95173e+07
2.94814e+07
2.94455e+07
2.94096e+07
2.93736e+07
2.93375e+07
2.93015e+07
2.92653e+07
2.92291e+07
2.91929e+07
2.91565e+07
2.91201e+07
2.90836e+07
2.90469e+07
2.90102e+07
2.89733e+07
2.89364e+07
2.88992e+07
2.8862e+07
2.88246e+07
2.87871e+07
2.87493e+07
2.87119e+07
2.86736e+07
2.86368e+07
2.85975e+07
2.8563e+07
2.8525e+07
2.85023e+07
2.84679e+07
2.84352e+07
2.84048e+07
2.83773e+07
2.83535e+07
2.83342e+07
2.83202e+07
2.83123e+07
2.99821e+07
2.99464e+07
2.99106e+07
2.98749e+07
2.98391e+07
2.98034e+07
2.97676e+07
2.97318e+07
2.9696e+07
2.96602e+07
2.96243e+07
2.95885e+07
2.95526e+07
2.95166e+07
2.94807e+07
2.94447e+07
2.94086e+07
2.93725e+07
2.93363e+07
2.93e+07
2.92637e+07
2.92273e+07
2.91908e+07
2.91541e+07
2.91174e+07
2.90805e+07
2.90434e+07
2.90062e+07
2.89688e+07
2.89312e+07
2.88933e+07
2.88553e+07
2.88169e+07
2.87784e+07
2.87393e+07
2.87004e+07
2.86606e+07
2.86216e+07
2.85808e+07
2.85426e+07
2.85048e+07
2.84777e+07
2.84399e+07
2.84036e+07
2.83693e+07
2.83377e+07
2.83102e+07
2.82875e+07
2.82709e+07
2.82613e+07
2.99821e+07
2.99463e+07
2.99106e+07
2.98748e+07
2.9839e+07
2.98032e+07
2.97674e+07
2.97316e+07
2.96957e+07
2.96598e+07
2.96239e+07
2.9588e+07
2.9552e+07
2.9516e+07
2.948e+07
2.94439e+07
2.94077e+07
2.93714e+07
2.93351e+07
2.92987e+07
2.92622e+07
2.92256e+07
2.91888e+07
2.91519e+07
2.91148e+07
2.90776e+07
2.90401e+07
2.90024e+07
2.89645e+07
2.89262e+07
2.88877e+07
2.88488e+07
2.88094e+07
2.87698e+07
2.87295e+07
2.86892e+07
2.86476e+07
2.86067e+07
2.85635e+07
2.85225e+07
2.84836e+07
2.84523e+07
2.84108e+07
2.83702e+07
2.8331e+07
2.82943e+07
2.82621e+07
2.82351e+07
2.82148e+07
2.8203e+07
2.99821e+07
2.99463e+07
2.99105e+07
2.98747e+07
2.98389e+07
2.9803e+07
2.97672e+07
2.97313e+07
2.96954e+07
2.96595e+07
2.96236e+07
2.95876e+07
2.95515e+07
2.95155e+07
2.94793e+07
2.94431e+07
2.94068e+07
2.93705e+07
2.9334e+07
2.92975e+07
2.92608e+07
2.9224e+07
2.9187e+07
2.91498e+07
2.91124e+07
2.90749e+07
2.9037e+07
2.89989e+07
2.89604e+07
2.89216e+07
2.88823e+07
2.88427e+07
2.88024e+07
2.87617e+07
2.87202e+07
2.86783e+07
2.86352e+07
2.8592e+07
2.8547e+07
2.85025e+07
2.8462e+07
2.84266e+07
2.83809e+07
2.83353e+07
2.82903e+07
2.82401e+07
2.81998e+07
2.81657e+07
2.81401e+07
2.81254e+07
2.99821e+07
2.99463e+07
2.99104e+07
2.98746e+07
2.98388e+07
2.98029e+07
2.9767e+07
2.97311e+07
2.96952e+07
2.96592e+07
2.96232e+07
2.95872e+07
2.95511e+07
2.9515e+07
2.94787e+07
2.94425e+07
2.94061e+07
2.93696e+07
2.9333e+07
2.92963e+07
2.92595e+07
2.92225e+07
2.91853e+07
2.91479e+07
2.91103e+07
2.90724e+07
2.90342e+07
2.89956e+07
2.89567e+07
2.89173e+07
2.88775e+07
2.8837e+07
2.87959e+07
2.87542e+07
2.87115e+07
2.86682e+07
2.86235e+07
2.85782e+07
2.8531e+07
2.84835e+07
2.8441e+07
2.84012e+07
2.83508e+07
2.82996e+07
2.82482e+07
2.81884e+07
2.81384e+07
2.80956e+07
2.80627e+07
2.80436e+07
2.99821e+07
2.99462e+07
2.99104e+07
2.98745e+07
2.98387e+07
2.98028e+07
2.97669e+07
2.97309e+07
2.9695e+07
2.9659e+07
2.96229e+07
2.95869e+07
2.95507e+07
2.95145e+07
2.94782e+07
2.94419e+07
2.94054e+07
2.93689e+07
2.93322e+07
2.92954e+07
2.92584e+07
2.92212e+07
2.91838e+07
2.91462e+07
2.91084e+07
2.90702e+07
2.90317e+07
2.89928e+07
2.89534e+07
2.89136e+07
2.88731e+07
2.8832e+07
2.87901e+07
2.87475e+07
2.87037e+07
2.86591e+07
2.86129e+07
2.85656e+07
2.85163e+07
2.84657e+07
2.84213e+07
2.83767e+07
2.83213e+07
2.82639e+07
2.8205e+07
2.8134e+07
2.80725e+07
2.80172e+07
2.79726e+07
2.79457e+07
2.99821e+07
2.99462e+07
2.99103e+07
2.98745e+07
2.98386e+07
2.98027e+07
2.97667e+07
2.97308e+07
2.96948e+07
2.96588e+07
2.96227e+07
2.95866e+07
2.95504e+07
2.95141e+07
2.94778e+07
2.94414e+07
2.94049e+07
2.93682e+07
2.93315e+07
2.92945e+07
2.92574e+07
2.92201e+07
2.91826e+07
2.91448e+07
2.91068e+07
2.90683e+07
2.90296e+07
2.89903e+07
2.89506e+07
2.89103e+07
2.88694e+07
2.88277e+07
2.87852e+07
2.87417e+07
2.8697e+07
2.86511e+07
2.86036e+07
2.85545e+07
2.85032e+07
2.84499e+07
2.84037e+07
2.83541e+07
2.82936e+07
2.82297e+07
2.81624e+07
2.80786e+07
2.80025e+07
2.79293e+07
2.78655e+07
2.78243e+07
2.99821e+07
2.99462e+07
2.99103e+07
2.98744e+07
2.98385e+07
2.98026e+07
2.97666e+07
2.97307e+07
2.96947e+07
2.96586e+07
2.96225e+07
2.95864e+07
2.95501e+07
2.95138e+07
2.94775e+07
2.9441e+07
2.94044e+07
2.93677e+07
2.93309e+07
2.92939e+07
2.92567e+07
2.92193e+07
2.91816e+07
2.91437e+07
2.91055e+07
2.90669e+07
2.90279e+07
2.89884e+07
2.89484e+07
2.89078e+07
2.88664e+07
2.88243e+07
2.87812e+07
2.8737e+07
2.86915e+07
2.86446e+07
2.8596e+07
2.85454e+07
2.84924e+07
2.84368e+07
2.83892e+07
2.83344e+07
2.8269e+07
2.81987e+07
2.81227e+07
2.80252e+07
2.79314e+07
2.78338e+07
2.77412e+07
2.76574e+07
2.99821e+07
2.99462e+07
2.99103e+07
2.98744e+07
2.98385e+07
2.98025e+07
2.97666e+07
2.97306e+07
2.96945e+07
2.96585e+07
2.96224e+07
2.95862e+07
2.95499e+07
2.95136e+07
2.94772e+07
2.94407e+07
2.94041e+07
2.93673e+07
2.93305e+07
2.92934e+07
2.92561e+07
2.92186e+07
2.91809e+07
2.91429e+07
2.91045e+07
2.90658e+07
2.90266e+07
2.8987e+07
2.89467e+07
2.89059e+07
2.88642e+07
2.88217e+07
2.87782e+07
2.87335e+07
2.86874e+07
2.86398e+07
2.85903e+07
2.85386e+07
2.84842e+07
2.84268e+07
2.83785e+07
2.83188e+07
2.82492e+07
2.81732e+07
2.80891e+07
2.79784e+07
2.7866e+07
2.77378e+07
2.75917e+07
2.74373e+07
2.99821e+07
2.99462e+07
2.99103e+07
2.98744e+07
2.98384e+07
2.98025e+07
2.97665e+07
2.97305e+07
2.96945e+07
2.96584e+07
2.96223e+07
2.95861e+07
2.95498e+07
2.95135e+07
2.94771e+07
2.94405e+07
2.94039e+07
2.93671e+07
2.93302e+07
2.92931e+07
2.92558e+07
2.92182e+07
2.91805e+07
2.91424e+07
2.91039e+07
2.90651e+07
2.90259e+07
2.89861e+07
2.89457e+07
2.89047e+07
2.88628e+07
2.88201e+07
2.87763e+07
2.87313e+07
2.86849e+07
2.86368e+07
2.85867e+07
2.85343e+07
2.8479e+07
2.84204e+07
2.83721e+07
2.83081e+07
2.82356e+07
2.81553e+07
2.8065e+07
2.79445e+07
2.78166e+07
2.766e+07
2.7465e+07
2.71775e+07
2.99821e+07
2.99462e+07
2.99103e+07
2.98743e+07
2.98384e+07
2.98025e+07
2.97665e+07
2.97305e+07
2.96945e+07
2.96584e+07
2.96222e+07
2.9586e+07
2.95498e+07
2.95134e+07
2.9477e+07
2.94405e+07
2.94038e+07
2.9367e+07
2.93301e+07
2.9293e+07
2.92557e+07
2.92181e+07
2.91803e+07
2.91422e+07
2.91037e+07
2.90649e+07
2.90256e+07
2.89858e+07
2.89454e+07
2.89043e+07
2.88624e+07
2.88196e+07
2.87757e+07
2.87306e+07
2.8684e+07
2.86358e+07
2.85855e+07
2.85328e+07
2.84772e+07
2.84182e+07
2.83708e+07
2.83033e+07
2.82294e+07
2.81471e+07
2.80538e+07
2.79295e+07
2.7795e+07
2.76248e+07
2.74102e+07
2.70828e+07
2.99821e+07
2.99462e+07
2.99103e+07
2.98744e+07
2.98384e+07
2.98025e+07
2.97665e+07
2.97305e+07
2.96945e+07
2.96584e+07
2.96223e+07
2.95861e+07
2.95498e+07
2.95135e+07
2.94771e+07
2.94405e+07
2.94039e+07
2.93671e+07
2.93302e+07
2.92931e+07
2.92558e+07
2.92182e+07
2.91805e+07
2.91424e+07
2.91039e+07
2.90651e+07
2.90259e+07
2.89861e+07
2.89457e+07
2.89047e+07
2.88628e+07
2.88201e+07
2.87763e+07
2.87313e+07
2.86849e+07
2.86368e+07
2.85867e+07
2.85343e+07
2.8479e+07
2.84204e+07
2.83746e+07
2.8305e+07
2.82315e+07
2.81499e+07
2.80576e+07
2.79371e+07
2.78078e+07
2.76462e+07
2.74528e+07
2.71526e+07
2.99821e+07
2.99462e+07
2.99103e+07
2.98744e+07
2.98385e+07
2.98025e+07
2.97666e+07
2.97306e+07
2.96945e+07
2.96585e+07
2.96224e+07
2.95862e+07
2.95499e+07
2.95136e+07
2.94772e+07
2.94407e+07
2.94041e+07
2.93673e+07
2.93305e+07
2.92934e+07
2.92561e+07
2.92186e+07
2.91809e+07
2.91429e+07
2.91045e+07
2.90658e+07
2.90266e+07
2.8987e+07
2.89467e+07
2.89059e+07
2.88642e+07
2.88217e+07
2.87782e+07
2.87335e+07
2.86874e+07
2.86398e+07
2.85903e+07
2.85386e+07
2.84842e+07
2.84268e+07
2.83831e+07
2.8313e+07
2.82417e+07
2.81633e+07
2.80757e+07
2.79655e+07
2.78511e+07
2.77157e+07
2.75743e+07
2.74003e+07
2.99821e+07
2.99462e+07
2.99103e+07
2.98744e+07
2.98385e+07
2.98026e+07
2.97666e+07
2.97307e+07
2.96947e+07
2.96586e+07
2.96225e+07
2.95864e+07
2.95501e+07
2.95138e+07
2.94775e+07
2.9441e+07
2.94044e+07
2.93677e+07
2.93309e+07
2.92939e+07
2.92567e+07
2.92193e+07
2.91816e+07
2.91437e+07
2.91055e+07
2.90669e+07
2.90279e+07
2.89884e+07
2.89484e+07
2.89078e+07
2.88664e+07
2.88243e+07
2.87812e+07
2.8737e+07
2.86915e+07
2.86446e+07
2.8596e+07
2.85454e+07
2.84924e+07
2.84368e+07
2.83957e+07
2.83264e+07
2.82587e+07
2.81853e+07
2.8105e+07
2.80085e+07
2.79133e+07
2.78091e+07
2.77173e+07
2.76337e+07
2.99821e+07
2.99462e+07
2.99103e+07
2.98745e+07
2.98386e+07
2.98027e+07
2.97667e+07
2.97308e+07
2.96948e+07
2.96588e+07
2.96227e+07
2.95866e+07
2.95504e+07
2.95141e+07
2.94778e+07
2.94414e+07
2.94049e+07
2.93682e+07
2.93315e+07
2.92945e+07
2.92574e+07
2.92201e+07
2.91826e+07
2.91448e+07
2.91068e+07
2.90683e+07
2.90296e+07
2.89903e+07
2.89506e+07
2.89103e+07
2.88694e+07
2.88277e+07
2.87852e+07
2.87417e+07
2.8697e+07
2.86511e+07
2.86036e+07
2.85545e+07
2.85032e+07
2.84499e+07
2.84117e+07
2.83443e+07
2.82812e+07
2.82139e+07
2.81421e+07
2.80601e+07
2.79836e+07
2.79061e+07
2.78361e+07
2.77891e+07
2.99821e+07
2.99462e+07
2.99104e+07
2.98745e+07
2.98387e+07
2.98028e+07
2.97669e+07
2.97309e+07
2.9695e+07
2.9659e+07
2.96229e+07
2.95869e+07
2.95507e+07
2.95145e+07
2.94782e+07
2.94419e+07
2.94054e+07
2.93689e+07
2.93322e+07
2.92954e+07
2.92584e+07
2.92212e+07
2.91838e+07
2.91462e+07
2.91084e+07
2.90702e+07
2.90317e+07
2.89928e+07
2.89534e+07
2.89136e+07
2.88731e+07
2.8832e+07
2.87901e+07
2.87475e+07
2.87037e+07
2.86591e+07
2.86129e+07
2.85656e+07
2.85163e+07
2.84657e+07
2.84303e+07
2.83657e+07
2.83076e+07
2.82468e+07
2.81837e+07
2.81151e+07
2.80542e+07
2.7996e+07
2.79477e+07
2.79179e+07
2.99821e+07
2.99463e+07
2.99104e+07
2.98746e+07
2.98388e+07
2.98029e+07
2.9767e+07
2.97311e+07
2.96952e+07
2.96592e+07
2.96232e+07
2.95872e+07
2.95511e+07
2.9515e+07
2.94787e+07
2.94425e+07
2.94061e+07
2.93696e+07
2.9333e+07
2.92963e+07
2.92595e+07
2.92225e+07
2.91853e+07
2.91479e+07
2.91103e+07
2.90724e+07
2.90342e+07
2.89956e+07
2.89567e+07
2.89173e+07
2.88775e+07
2.8837e+07
2.87959e+07
2.87542e+07
2.87115e+07
2.86682e+07
2.86235e+07
2.85782e+07
2.8531e+07
2.84835e+07
2.84507e+07
2.83895e+07
2.83364e+07
2.8282e+07
2.82269e+07
2.81699e+07
2.81212e+07
2.80766e+07
2.80415e+07
2.80208e+07
2.99821e+07
2.99463e+07
2.99105e+07
2.98747e+07
2.98389e+07
2.9803e+07
2.97672e+07
2.97313e+07
2.96954e+07
2.96595e+07
2.96236e+07
2.95876e+07
2.95515e+07
2.95155e+07
2.94793e+07
2.94431e+07
2.94068e+07
2.93705e+07
2.9334e+07
2.92975e+07
2.92608e+07
2.9224e+07
2.9187e+07
2.91498e+07
2.91124e+07
2.90749e+07
2.9037e+07
2.89989e+07
2.89604e+07
2.89216e+07
2.88823e+07
2.88427e+07
2.88024e+07
2.87617e+07
2.87202e+07
2.86783e+07
2.86352e+07
2.8592e+07
2.8547e+07
2.85025e+07
2.84722e+07
2.84145e+07
2.83663e+07
2.83178e+07
2.82698e+07
2.82225e+07
2.8183e+07
2.8148e+07
2.81213e+07
2.8106e+07
2.99821e+07
2.99463e+07
2.99106e+07
2.98748e+07
2.9839e+07
2.98032e+07
2.97674e+07
2.97316e+07
2.96957e+07
2.96598e+07
2.96239e+07
2.9588e+07
2.9552e+07
2.9516e+07
2.948e+07
2.94439e+07
2.94077e+07
2.93714e+07
2.93351e+07
2.92987e+07
2.92622e+07
2.92256e+07
2.91888e+07
2.91519e+07
2.91148e+07
2.90776e+07
2.90401e+07
2.90024e+07
2.89645e+07
2.89262e+07
2.88877e+07
2.88488e+07
2.88094e+07
2.87698e+07
2.87295e+07
2.86892e+07
2.86476e+07
2.86067e+07
2.85635e+07
2.85225e+07
2.84943e+07
2.84398e+07
2.83962e+07
2.83531e+07
2.83116e+07
2.82731e+07
2.8237e+07
2.82066e+07
2.81839e+07
2.81706e+07
2.99821e+07
2.99464e+07
2.99106e+07
2.98749e+07
2.98391e+07
2.98034e+07
2.97676e+07
2.97318e+07
2.9696e+07
2.96602e+07
2.96243e+07
2.95885e+07
2.95526e+07
2.95166e+07
2.94807e+07
2.94447e+07
2.94086e+07
2.93725e+07
2.93363e+07
2.93e+07
2.92637e+07
2.92273e+07
2.91908e+07
2.91541e+07
2.91174e+07
2.90805e+07
2.90434e+07
2.90062e+07
2.89688e+07
2.89312e+07
2.88933e+07
2.88553e+07
2.88169e+07
2.87784e+07
2.87393e+07
2.87004e+07
2.86606e+07
2.86216e+07
2.85808e+07
2.85426e+07
2.85164e+07
2.84645e+07
2.8425e+07
2.83866e+07
2.83502e+07
2.83167e+07
2.82867e+07
2.82618e+07
2.82436e+07
2.82331e+07
2.99821e+07
2.99464e+07
2.99107e+07
2.9875e+07
2.98393e+07
2.98036e+07
2.97678e+07
2.97321e+07
2.96963e+07
2.96606e+07
2.96248e+07
2.9589e+07
2.95531e+07
2.95173e+07
2.94814e+07
2.94455e+07
2.94096e+07
2.93736e+07
2.93375e+07
2.93015e+07
2.92653e+07
2.92291e+07
2.91929e+07
2.91565e+07
2.91201e+07
2.90836e+07
2.90469e+07
2.90102e+07
2.89733e+07
2.89364e+07
2.88992e+07
2.8862e+07
2.88246e+07
2.87871e+07
2.87493e+07
2.87119e+07
2.86736e+07
2.86368e+07
2.85975e+07
2.8563e+07
2.85381e+07
2.8488e+07
2.84521e+07
2.84178e+07
2.83857e+07
2.83565e+07
2.83311e+07
2.83105e+07
2.82957e+07
2.82874e+07
2.99822e+07
2.99465e+07
2.99108e+07
2.98751e+07
2.98394e+07
2.98037e+07
2.97681e+07
2.97324e+07
2.96966e+07
2.96609e+07
2.96252e+07
2.95895e+07
2.95537e+07
2.9518e+07
2.94822e+07
2.94464e+07
2.94105e+07
2.93747e+07
2.93388e+07
2.93029e+07
2.9267e+07
2.9231e+07
2.9195e+07
2.9159e+07
2.91229e+07
2.90867e+07
2.90505e+07
2.90143e+07
2.8978e+07
2.89417e+07
2.89053e+07
2.88689e+07
2.88324e+07
2.8796e+07
2.87595e+07
2.87234e+07
2.86871e+07
2.86515e+07
2.86157e+07
2.85812e+07
2.8547e+07
2.85138e+07
2.8482e+07
2.84521e+07
2.84246e+07
2.84002e+07
2.83795e+07
2.83632e+07
2.83519e+07
2.83462e+07
2.99822e+07
2.99465e+07
2.99109e+07
2.98752e+07
2.98396e+07
2.98039e+07
2.97683e+07
2.97326e+07
2.9697e+07
2.96613e+07
2.96257e+07
2.959e+07
2.95543e+07
2.95186e+07
2.9483e+07
2.94473e+07
2.94116e+07
2.93759e+07
2.93401e+07
2.93044e+07
2.92687e+07
2.9233e+07
2.91972e+07
2.91615e+07
2.91257e+07
2.90899e+07
2.90542e+07
2.90184e+07
2.89827e+07
2.8947e+07
2.89113e+07
2.88757e+07
2.88402e+07
2.88049e+07
2.87695e+07
2.87348e+07
2.86997e+07
2.8666e+07
2.86316e+07
2.85997e+07
2.85667e+07
2.85365e+07
2.85072e+07
2.84803e+07
2.84557e+07
2.8434e+07
2.84158e+07
2.84016e+07
2.83918e+07
2.83868e+07
2.99822e+07
2.99466e+07
2.9911e+07
2.98754e+07
2.98398e+07
2.98041e+07
2.97685e+07
2.97329e+07
2.96973e+07
2.96617e+07
2.96261e+07
2.95905e+07
2.95549e+07
2.95193e+07
2.94837e+07
2.94482e+07
2.94126e+07
2.9377e+07
2.93415e+07
2.93059e+07
2.92704e+07
2.92349e+07
2.91994e+07
2.9164e+07
2.91285e+07
2.90931e+07
2.90578e+07
2.90225e+07
2.89874e+07
2.89523e+07
2.89173e+07
2.88825e+07
2.88479e+07
2.88135e+07
2.87794e+07
2.87458e+07
2.87124e+07
2.86799e+07
2.86479e+07
2.86171e+07
2.85871e+07
2.85586e+07
2.85317e+07
2.85069e+07
2.84845e+07
2.84649e+07
2.84486e+07
2.84359e+07
2.84272e+07
2.84228e+07
2.99822e+07
2.99466e+07
2.99111e+07
2.98755e+07
2.98399e+07
2.98043e+07
2.97688e+07
2.97332e+07
2.96977e+07
2.96621e+07
2.96266e+07
2.9591e+07
2.95555e+07
2.952e+07
2.94845e+07
2.94491e+07
2.94136e+07
2.93782e+07
2.93428e+07
2.93074e+07
2.92721e+07
2.92368e+07
2.92016e+07
2.91664e+07
2.91313e+07
2.90963e+07
2.90614e+07
2.90266e+07
2.89919e+07
2.89574e+07
2.89231e+07
2.88891e+07
2.88553e+07
2.88219e+07
2.87888e+07
2.87563e+07
2.87242e+07
2.86931e+07
2.86625e+07
2.86334e+07
2.86049e+07
2.85785e+07
2.85535e+07
2.85307e+07
2.85102e+07
2.84924e+07
2.84777e+07
2.84663e+07
2.84586e+07
2.84546e+07
2.99822e+07
2.99467e+07
2.99111e+07
2.98756e+07
2.98401e+07
2.98045e+07
2.9769e+07
2.97335e+07
2.9698e+07
2.96625e+07
2.9627e+07
2.95916e+07
2.95561e+07
2.95207e+07
2.94853e+07
2.94499e+07
2.94146e+07
2.93793e+07
2.93441e+07
2.93089e+07
2.92738e+07
2.92387e+07
2.92037e+07
2.91688e+07
2.9134e+07
2.90994e+07
2.90649e+07
2.90305e+07
2.89963e+07
2.89624e+07
2.89287e+07
2.88954e+07
2.88624e+07
2.88298e+07
2.87977e+07
2.87663e+07
2.87355e+07
2.87056e+07
2.86765e+07
2.86487e+07
2.86221e+07
2.85971e+07
2.85737e+07
2.85525e+07
2.85336e+07
2.85172e+07
2.85037e+07
2.84934e+07
2.84863e+07
2.84828e+07
2.99822e+07
2.99467e+07
2.99112e+07
2.98757e+07
2.98402e+07
2.98047e+07
2.97692e+07
2.97338e+07
2.96983e+07
2.96629e+07
2.96274e+07
2.95921e+07
2.95567e+07
2.95213e+07
2.9486e+07
2.94508e+07
2.94156e+07
2.93804e+07
2.93453e+07
2.93103e+07
2.92753e+07
2.92405e+07
2.92057e+07
2.91711e+07
2.91366e+07
2.91023e+07
2.90682e+07
2.90342e+07
2.90005e+07
2.89671e+07
2.8934e+07
2.89013e+07
2.88691e+07
2.88373e+07
2.88061e+07
2.87756e+07
2.87458e+07
2.8717e+07
2.86891e+07
2.86626e+07
2.86373e+07
2.86137e+07
2.85917e+07
2.85719e+07
2.85543e+07
2.85392e+07
2.85267e+07
2.85172e+07
2.85107e+07
2.85075e+07
2.99823e+07
2.99468e+07
2.99113e+07
2.98758e+07
2.98403e+07
2.98049e+07
2.97694e+07
2.9734e+07
2.96986e+07
2.96632e+07
2.96279e+07
2.95925e+07
2.95572e+07
2.9522e+07
2.94867e+07
2.94516e+07
2.94165e+07
2.93814e+07
2.93465e+07
2.93116e+07
2.92768e+07
2.92422e+07
2.92076e+07
2.91733e+07
2.91391e+07
2.9105e+07
2.90713e+07
2.90377e+07
2.90045e+07
2.89715e+07
2.8939e+07
2.89069e+07
2.88753e+07
2.88442e+07
2.88138e+07
2.87842e+07
2.87553e+07
2.87275e+07
2.87008e+07
2.86753e+07
2.86512e+07
2.86287e+07
2.8608e+07
2.85893e+07
2.85727e+07
2.85586e+07
2.8547e+07
2.85381e+07
2.85321e+07
2.85291e+07
2.99823e+07
2.99468e+07
2.99114e+07
2.98759e+07
2.98405e+07
2.98051e+07
2.97696e+07
2.97343e+07
2.96989e+07
2.96635e+07
2.96282e+07
2.9593e+07
2.95577e+07
2.95225e+07
2.94874e+07
2.94523e+07
2.94173e+07
2.93824e+07
2.93476e+07
2.93128e+07
2.92782e+07
2.92437e+07
2.92094e+07
2.91753e+07
2.91413e+07
2.91076e+07
2.90741e+07
2.90409e+07
2.90081e+07
2.89756e+07
2.89435e+07
2.89119e+07
2.88809e+07
2.88505e+07
2.88208e+07
2.87919e+07
2.87639e+07
2.8737e+07
2.87111e+07
2.86866e+07
2.86635e+07
2.8642e+07
2.86223e+07
2.86045e+07
2.85889e+07
2.85755e+07
2.85646e+07
2.85563e+07
2.85507e+07
2.85479e+07
2.99823e+07
2.99469e+07
2.99114e+07
2.9876e+07
2.98406e+07
2.98052e+07
2.97698e+07
2.97345e+07
2.96991e+07
2.96638e+07
2.96286e+07
2.95933e+07
2.95582e+07
2.9523e+07
2.9488e+07
2.9453e+07
2.94181e+07
2.93833e+07
2.93485e+07
2.93139e+07
2.92795e+07
2.92452e+07
2.9211e+07
2.91771e+07
2.91433e+07
2.91099e+07
2.90767e+07
2.90438e+07
2.90113e+07
2.89792e+07
2.89476e+07
2.89165e+07
2.8886e+07
2.88561e+07
2.8827e+07
2.87988e+07
2.87715e+07
2.87453e+07
2.87202e+07
2.86965e+07
2.86742e+07
2.86536e+07
2.86347e+07
2.86177e+07
2.86028e+07
2.85901e+07
2.85798e+07
2.85719e+07
2.85666e+07
2.8564e+07
2.99823e+07
2.99469e+07
2.99115e+07
2.98761e+07
2.98407e+07
2.98053e+07
2.977e+07
2.97347e+07
2.96994e+07
2.96641e+07
2.96289e+07
2.95937e+07
2.95586e+07
2.95235e+07
2.94885e+07
2.94536e+07
2.94188e+07
2.9384e+07
2.93494e+07
2.93149e+07
2.92806e+07
2.92464e+07
2.92124e+07
2.91787e+07
2.91451e+07
2.91119e+07
2.90789e+07
2.90463e+07
2.90141e+07
2.89824e+07
2.89511e+07
2.89204e+07
2.88904e+07
2.8861e+07
2.88324e+07
2.88048e+07
2.87781e+07
2.87525e+07
2.87281e+07
2.8705e+07
2.86834e+07
2.86635e+07
2.86453e+07
2.86289e+07
2.86146e+07
2.86025e+07
2.85926e+07
2.85851e+07
2.858e+07
2.85775e+07
2.99823e+07
2.99469e+07
2.99115e+07
2.98762e+07
2.98408e+07
2.98054e+07
2.97701e+07
2.97348e+07
2.96996e+07
2.96643e+07
2.96291e+07
2.9594e+07
2.95589e+07
2.95239e+07
2.9489e+07
2.94541e+07
2.94193e+07
2.93847e+07
2.93501e+07
2.93158e+07
2.92815e+07
2.92475e+07
2.92136e+07
2.918e+07
2.91467e+07
2.91136e+07
2.90809e+07
2.90485e+07
2.90166e+07
2.89851e+07
2.89541e+07
2.89238e+07
2.88941e+07
2.88651e+07
2.8837e+07
2.88098e+07
2.87836e+07
2.87585e+07
2.87346e+07
2.87122e+07
2.86911e+07
2.86717e+07
2.8654e+07
2.86382e+07
2.86244e+07
2.86127e+07
2.86031e+07
2.85959e+07
2.85911e+07
2.85886e+07
2.99823e+07
2.99469e+07
2.99116e+07
2.98762e+07
2.98409e+07
2.98055e+07
2.97702e+07
2.9735e+07
2.96997e+07
2.96645e+07
2.96294e+07
2.95942e+07
2.95592e+07
2.95242e+07
2.94893e+07
2.94545e+07
2.94198e+07
2.93852e+07
2.93508e+07
2.93164e+07
2.92823e+07
2.92483e+07
2.92146e+07
2.91811e+07
2.91479e+07
2.9115e+07
2.90824e+07
2.90503e+07
2.90185e+07
2.89873e+07
2.89566e+07
2.89265e+07
2.88971e+07
2.88685e+07
2.88407e+07
2.88138e+07
2.8788e+07
2.87633e+07
2.87399e+07
2.87178e+07
2.86973e+07
2.86783e+07
2.8661e+07
2.86456e+07
2.86321e+07
2.86207e+07
2.86115e+07
2.86045e+07
2.85998e+07
2.85974e+07
2.99823e+07
2.9947e+07
2.99116e+07
2.98763e+07
2.98409e+07
2.98056e+07
2.97703e+07
2.97351e+07
2.96998e+07
2.96647e+07
2.96295e+07
2.95944e+07
2.95594e+07
2.95245e+07
2.94896e+07
2.94548e+07
2.94202e+07
2.93856e+07
2.93512e+07
2.9317e+07
2.92829e+07
2.9249e+07
2.92154e+07
2.9182e+07
2.91488e+07
2.91161e+07
2.90836e+07
2.90516e+07
2.902e+07
2.89889e+07
2.89584e+07
2.89286e+07
2.88994e+07
2.8871e+07
2.88435e+07
2.88169e+07
2.87914e+07
2.8767e+07
2.87439e+07
2.87221e+07
2.87018e+07
2.86832e+07
2.86662e+07
2.86511e+07
2.86379e+07
2.86268e+07
2.86177e+07
2.86109e+07
2.86063e+07