/*--------------------------------*- C++ -*----------------------------------*\
| =========                 |                                                 |
| \\      /  F ield         | foam-extend: Open Source CFD                    |
|  \\    /   O peration     | Version:     4.0                                |
|   \\  /    A nd           | Web:         http://www.foam-extend.org         |
|    \\/     M anipulation  |                                                 |
\*---------------------------------------------------------------------------*/
FoamFile
{
    version     2.0;
    format      ascii;
    class       surfaceScalarField;
    location    "0.0001";
    object      phi;
}
// * * * * * * * * * * * * * * * * * * * * * * * * * * * * * * * * * * * * * //

dimensions      [0 3 -1 0 0 0 0];

internalField   nonuniform List<scalar> 
57362
(
2.64139e-11
1.56804e-15
2.64091e-11
4.72808e-15
2.64012e-11
7.96029e-15
2.63899e-11
1.1314e-14
2.6375e-11
1.484e-14
2.63564e-11
1.85919e-14
2.63338e-11
2.26261e-14
2.63068e-11
2.7003e-14
2.6275e-11
3.17879e-14
2.62379e-11
3.70512e-14
2.61951e-11
4.28701e-14
2.61457e-11
4.93287e-14
2.60892e-11
5.65195e-14
2.60246e-11
6.4544e-14
2.59511e-11
7.35139e-14
2.58675e-11
8.35518e-14
2.57727e-11
9.47925e-14
2.56653e-11
1.07384e-13
2.55438e-11
1.21486e-13
2.54065e-11
1.37275e-13
2.52516e-11
1.54941e-13
2.50769e-11
1.74687e-13
2.48801e-11
1.96733e-13
2.46588e-11
2.2131e-13
2.44101e-11
2.4866e-13
2.4131e-11
2.79033e-13
2.38183e-11
3.12685e-13
2.34684e-11
3.49866e-13
2.30775e-11
3.90823e-13
2.26417e-11
4.35777e-13
2.21567e-11
4.84927e-13
2.16182e-11
5.38413e-13
2.10218e-11
5.96338e-13
2.03631e-11
6.58678e-13
1.96377e-11
7.25381e-13
1.88415e-11
7.96146e-13
1.79708e-11
8.70704e-13
1.70224e-11
9.48353e-13
1.59938e-11
1.02854e-12
1.48837e-11
1.11008e-12
1.36917e-11
1.19205e-12
1.24189e-11
1.27284e-12
1.10678e-11
1.35111e-12
9.64287e-12
1.425e-12
8.15012e-12
1.49284e-12
6.59744e-12
1.55278e-12
4.99441e-12
1.60316e-12
3.35211e-12
1.64243e-12
1.6829e-12
1.66936e-12
1.68305e-12
2.64142e-11
3.11281e-15
2.64096e-11
9.386e-15
2.64017e-11
1.58026e-14
2.63906e-11
2.24604e-14
2.63759e-11
2.94606e-14
2.63576e-11
3.69094e-14
2.63353e-11
4.49191e-14
2.63087e-11
5.36097e-14
2.62774e-11
6.31108e-14
2.62409e-11
7.35628e-14
2.61986e-11
8.51187e-14
2.615e-11
9.79462e-14
2.60943e-11
1.12229e-13
2.60306e-11
1.2817e-13
2.59581e-11
1.45991e-13
2.58757e-11
1.65936e-13
2.57823e-11
1.88275e-13
2.56763e-11
2.13301e-13
2.55564e-11
2.41336e-13
2.5421e-11
2.7273e-13
2.5268e-11
3.07864e-13
2.50955e-11
3.47147e-13
2.49012e-11
3.91016e-13
2.46826e-11
4.39936e-13
2.44368e-11
4.94394e-13
2.41609e-11
5.54897e-13
2.38516e-11
6.21957e-13
2.35053e-11
6.96088e-13
2.31183e-11
7.77787e-13
2.26865e-11
8.67511e-13
2.22058e-11
9.65672e-13
2.16715e-11
1.07256e-12
2.10794e-11
1.18842e-12
2.04249e-11
1.31319e-12
1.97034e-11
1.44683e-12
1.89107e-11
1.58872e-12
1.80431e-11
1.73839e-12
1.7097e-11
1.89438e-12
1.60699e-11
2.05569e-12
1.49601e-11
2.21985e-12
1.37671e-11
2.38511e-12
1.24918e-11
2.54814e-12
1.11367e-11
2.70628e-12
9.70608e-12
2.8557e-12
8.20598e-12
2.99305e-12
6.64436e-12
3.1145e-12
5.03098e-12
3.21668e-12
3.37718e-12
3.29637e-12
1.69565e-12
3.35104e-12
3.37885e-12
2.6423e-11
4.61182e-15
2.64185e-11
1.3906e-14
2.64108e-11
2.34128e-14
2.64e-11
3.32773e-14
2.63858e-11
4.36498e-14
2.63681e-11
5.46875e-14
2.63464e-11
6.65572e-14
2.63206e-11
7.94371e-14
2.62902e-11
9.35195e-14
2.62547e-11
1.09013e-13
2.62137e-11
1.26145e-13
2.61665e-11
1.45165e-13
2.61123e-11
1.66346e-13
2.60505e-11
1.8999e-13
2.598e-11
2.16427e-13
2.58999e-11
2.46023e-13
2.5809e-11
2.79177e-13
2.5706e-11
3.1633e-13
2.55893e-11
3.57964e-13
2.54574e-11
4.04601e-13
2.53085e-11
4.56813e-13
2.51404e-11
5.15215e-13
2.49509e-11
5.80465e-13
2.47375e-11
6.53266e-13
2.44975e-11
7.34356e-13
2.42279e-11
8.24502e-13
2.39253e-11
9.2449e-13
2.35863e-11
1.03511e-12
2.32069e-11
1.15712e-12
2.27831e-11
1.29125e-12
2.23106e-11
1.43814e-12
2.17848e-11
1.59827e-12
2.12011e-11
1.77205e-12
2.05548e-11
1.95945e-12
1.98411e-11
2.16047e-12
1.90556e-11
2.37419e-12
1.81939e-11
2.60005e-12
1.72524e-11
2.83578e-12
1.6228e-11
3.08009e-12
1.51186e-11
3.32905e-12
1.39235e-11
3.5803e-12
1.2643e-11
3.82851e-12
1.12795e-11
4.06982e-12
9.83707e-12
4.29817e-12
8.32172e-12
4.50849e-12
6.74157e-12
4.69473e-12
5.10675e-12
4.85163e-12
3.42912e-12
4.97414e-12
1.72206e-12
5.05827e-12
5.10108e-12
2.6432e-11
6.04272e-15
2.64276e-11
1.82207e-14
2.64204e-11
3.06777e-14
2.641e-11
4.3604e-14
2.63965e-11
5.71967e-14
2.63795e-11
7.16625e-14
2.63589e-11
8.72202e-14
2.63342e-11
1.04104e-13
2.63051e-11
1.22566e-13
2.62713e-11
1.42882e-13
2.6232e-11
1.6535e-13
2.61869e-11
1.90298e-13
2.61352e-11
2.18088e-13
2.6076e-11
2.49116e-13
2.60086e-11
2.83819e-13
2.59319e-11
3.22679e-13
2.58449e-11
3.66227e-13
2.57461e-11
4.15045e-13
2.56343e-11
4.69772e-13
2.55078e-11
5.31107e-13
2.53648e-11
5.99807e-13
2.52033e-11
6.76697e-13
2.50211e-11
7.62658e-13
2.48157e-11
8.58636e-13
2.45844e-11
9.65626e-13
2.43241e-11
1.08467e-12
2.40318e-11
1.21684e-12
2.37036e-11
1.36322e-12
2.33358e-11
1.52488e-12
2.29242e-11
1.70281e-12
2.24643e-11
1.89797e-12
2.19515e-11
2.11105e-12
2.13808e-11
2.34271e-12
2.07472e-11
2.59296e-12
2.00457e-11
2.862e-12
1.92712e-11
3.14855e-12
1.84191e-11
3.45226e-12
1.7485e-11
3.76977e-12
1.64653e-11
4.09998e-12
1.53573e-11
4.437e-12
1.41594e-11
4.7784e-12
1.28717e-11
5.11624e-12
1.1496e-11
5.44577e-12
1.0036e-11
5.75826e-12
8.49779e-12
6.04686e-12
6.8897e-12
6.30294e-12
5.22236e-12
6.51915e-12
3.50844e-12
6.68822e-12
1.76242e-12
6.80447e-12
6.86368e-12
2.6441e-11
7.38416e-15
2.6437e-11
2.22657e-14
2.64302e-11
3.74887e-14
2.64205e-11
5.32863e-14
2.64078e-11
6.98997e-14
2.63919e-11
8.75819e-14
2.63725e-11
1.06601e-13
2.63493e-11
1.27245e-13
2.63221e-11
1.49822e-13
2.62903e-11
1.74671e-13
2.62535e-11
2.02158e-13
2.62111e-11
2.32687e-13
2.61624e-11
2.66702e-13
2.61068e-11
3.04692e-13
2.60435e-11
3.47196e-13
2.59713e-11
3.9481e-13
2.58893e-11
4.48189e-13
2.57963e-11
5.08057e-13
2.56909e-11
5.75208e-13
2.55714e-11
6.50509e-13
2.54363e-11
7.34909e-13
2.52836e-11
8.29438e-13
2.5111e-11
9.35207e-13
2.49162e-11
1.05341e-12
2.46965e-11
1.1853e-12
2.44489e-11
1.33223e-12
2.41701e-11
1.49555e-12
2.38566e-11
1.67668e-12
2.35044e-11
1.87703e-12
2.31092e-11
2.09792e-12
2.26665e-11
2.34064e-12
2.21713e-11
2.60617e-12
2.16185e-11
2.89553e-12
2.10025e-11
3.20878e-12
2.03179e-11
3.54657e-12
1.95591e-11
3.90713e-12
1.87206e-11
4.29071e-12
1.77975e-11
4.69258e-12
1.6785e-11
5.1124e-12
1.56798e-11
5.54183e-12
1.44793e-11
5.97887e-12
1.31827e-11
6.41252e-12
1.17911e-11
6.83731e-12
1.03079e-11
7.2413e-12
8.73908e-12
7.61576e-12
7.0931e-12
7.94894e-12
5.38137e-12
8.23101e-12
3.61767e-12
8.45206e-12
1.81803e-12
8.6043e-12
8.68191e-12
2.64581e-11
8.61637e-15
2.64544e-11
2.59815e-14
2.64481e-11
4.37459e-14
2.64392e-11
6.2182e-14
2.64275e-11
8.15721e-14
2.64129e-11
1.02212e-13
2.63951e-11
1.24417e-13
2.63738e-11
1.48521e-13
2.63487e-11
1.7489e-13
2.63195e-11
2.03917e-13
2.62856e-11
2.36034e-13
2.62466e-11
2.71717e-13
2.62018e-11
3.11486e-13
2.61505e-11
3.55919e-13
2.60921e-11
4.05652e-13
2.60255e-11
4.61389e-13
2.59498e-11
5.23907e-13
2.58637e-11
5.94063e-13
2.57661e-11
6.72802e-13
2.56555e-11
7.61162e-13
2.55301e-11
8.60276e-13
2.53881e-11
9.71382e-13
2.52275e-11
1.09582e-12
2.50458e-11
1.23504e-12
2.48405e-11
1.39058e-12
2.46086e-11
1.56407e-12
2.43469e-11
1.75722e-12
2.40518e-11
1.97179e-12
2.37192e-11
2.20956e-12
2.33448e-11
2.47224e-12
2.29239e-11
2.76156e-12
2.24511e-11
3.07881e-12
2.19212e-11
3.42554e-12
2.1328e-11
3.80188e-12
2.06655e-11
4.20923e-12
1.99273e-11
4.64516e-12
1.91071e-11
5.11127e-12
1.81989e-11
5.6006e-12
1.71968e-11
6.11517e-12
1.60963e-11
6.6422e-12
1.48933e-11
7.18261e-12
1.35862e-11
7.71968e-12
1.21751e-11
8.24898e-12
1.06626e-11
8.75392e-12
9.05459e-12
9.2242e-12
7.35968e-12
9.64406e-12
5.59017e-12
1.00008e-11
3.76132e-12
1.02811e-11
1.89124e-12
1.04746e-11
1.05734e-11
2.64749e-11
9.72073e-15
2.64715e-11
2.93119e-14
2.64659e-11
4.93544e-14
2.6458e-11
7.01566e-14
2.64475e-11
9.20376e-14
2.64344e-11
1.15333e-13
2.64184e-11
1.40397e-13
2.63993e-11
1.67613e-13
2.63768e-11
1.97391e-13
2.63505e-11
2.3018e-13
2.63201e-11
2.66471e-13
2.6285e-11
3.06803e-13
2.62447e-11
3.51772e-13
2.61986e-11
4.02034e-13
2.61459e-11
4.58318e-13
2.60858e-11
5.2143e-13
2.60175e-11
5.9226e-13
2.59397e-11
6.71797e-13
2.58514e-11
7.61129e-13
2.57511e-11
8.61456e-13
2.56372e-11
9.74098e-13
2.55081e-11
1.1005e-12
2.53617e-11
1.24222e-12
2.51957e-11
1.40098e-12
2.50076e-11
1.5786e-12
2.47946e-11
1.77704e-12
2.45535e-11
1.99835e-12
2.42805e-11
2.24468e-12
2.39718e-11
2.51823e-12
2.36228e-11
2.82115e-12
2.32286e-11
3.1557e-12
2.27837e-11
3.52355e-12
2.22823e-11
3.92697e-12
2.17176e-11
4.36615e-12
2.10832e-11
4.84367e-12
2.03716e-11
5.35619e-12
1.95755e-11
5.90742e-12
1.86875e-11
6.48764e-12
1.77003e-11
7.10222e-12
1.66081e-11
7.73339e-12
1.54048e-11
8.38546e-12
1.40873e-11
9.03621e-12
1.26543e-11
9.68169e-12
1.11072e-11
1.03004e-11
9.45156e-12
1.08797e-11
7.69615e-12
1.13993e-11
5.85442e-12
1.18426e-11
3.94346e-12
1.21922e-11
1.98418e-12
1.24341e-11
1.25578e-11
2.64911e-11
1.06804e-14
2.64882e-11
3.22062e-14
2.64833e-11
5.42291e-14
2.64764e-11
7.70887e-14
2.64673e-11
1.01137e-13
2.64559e-11
1.26743e-13
2.6442e-11
1.543e-13
2.64254e-11
1.84229e-13
2.64058e-11
2.16983e-13
2.63829e-11
2.53061e-13
2.63563e-11
2.93004e-13
2.63257e-11
3.37412e-13
2.62905e-11
3.86945e-13
2.62502e-11
4.42336e-13
2.62041e-11
5.04394e-13
2.61515e-11
5.7402e-13
2.60916e-11
6.52214e-13
2.60233e-11
7.40081e-13
2.59455e-11
8.38851e-13
2.58571e-11
9.49878e-13
2.57565e-11
1.07466e-12
2.56422e-11
1.21484e-12
2.55121e-11
1.37222e-12
2.53643e-11
1.54877e-12
2.51963e-11
1.74661e-12
2.50053e-11
1.96802e-12
2.47881e-11
2.21545e-12
2.45413e-11
2.49145e-12
2.42608e-11
2.79873e-12
2.3942e-11
3.13988e-12
2.35799e-11
3.51785e-12
2.31686e-11
3.93473e-12
2.2702e-11
4.39381e-12
2.21726e-11
4.89523e-12
2.15734e-11
5.44349e-12
2.08956e-11
6.03361e-12
2.01307e-11
6.67359e-12
1.92699e-11
7.34785e-12
1.83034e-11
8.07085e-12
1.72244e-11
8.81196e-12
1.60231e-11
9.58923e-12
1.46954e-11
1.0364e-11
1.32385e-11
1.11405e-11
1.16517e-11
1.18876e-11
9.94009e-12
1.25924e-11
8.11198e-12
1.32278e-11
6.18218e-12
1.37731e-11
4.16999e-12
1.42048e-11
2.09997e-12
1.45046e-11
1.46582e-11
2.65146e-11
1.1481e-14
2.65122e-11
3.46208e-14
2.65081e-11
5.82963e-14
2.65023e-11
8.28738e-14
2.64947e-11
1.08733e-13
2.64852e-11
1.36272e-13
2.64736e-11
1.65915e-13
2.64597e-11
1.98117e-13
2.64433e-11
2.3337e-13
2.64241e-11
2.72212e-13
2.64019e-11
3.15231e-13
2.63762e-11
3.63078e-13
2.63467e-11
4.16471e-13
2.63128e-11
4.76207e-13
2.6274e-11
5.43173e-13
2.62297e-11
6.18353e-13
2.61791e-11
7.02842e-13
2.61213e-11
7.97861e-13
2.60554e-11
9.04764e-13
2.59802e-11
1.02505e-12
2.58944e-11
1.1604e-12
2.57966e-11
1.31263e-12
2.5685e-11
1.48379e-12
2.55577e-11
1.67609e-12
2.54123e-11
1.89196e-12
2.52462e-11
2.13402e-12
2.50565e-11
2.40513e-12
2.48396e-11
2.70827e-12
2.45916e-11
3.04669e-12
2.43078e-11
3.42355e-12
2.39831e-11
3.84252e-12
2.36113e-11
4.30623e-12
2.3186e-11
4.81919e-12
2.26989e-11
5.38157e-12
2.21422e-11
6.00026e-12
2.15059e-11
6.66851e-12
2.07801e-11
7.39933e-12
1.99545e-11
8.1714e-12
1.90165e-11
9.00809e-12
1.79577e-11
9.86831e-12
1.67653e-11
1.07799e-11
1.54314e-11
1.16953e-11
1.39502e-11
1.26202e-11
1.23192e-11
1.35168e-11
1.05419e-11
1.43689e-11
8.62651e-12
1.51423e-11
6.58916e-12
1.58102e-11
4.45204e-12
1.63418e-11
2.24437e-12
1.67124e-11
1.69028e-11
2.6537e-11
1.211e-14
2.65351e-11
3.65178e-14
2.65319e-11
6.14925e-14
2.65273e-11
8.74214e-14
2.65213e-11
1.14706e-13
2.65138e-11
1.43769e-13
2.65047e-11
1.7506e-13
2.64937e-11
2.0906e-13
2.64808e-11
2.46292e-13
2.64657e-11
2.87329e-13
2.64481e-11
3.32797e-13
2.64278e-11
3.83389e-13
2.64044e-11
4.39873e-13
2.63775e-11
5.03102e-13
2.63467e-11
5.74025e-13
2.63113e-11
6.53702e-13
2.62708e-11
7.43313e-13
2.62245e-11
8.44178e-13
2.61715e-11
9.57767e-13
2.61108e-11
1.08572e-12
2.60413e-11
1.22985e-12
2.59618e-11
1.3922e-12
2.58705e-11
1.57499e-12
2.57659e-11
1.78072e-12
2.56457e-11
2.01209e-12
2.55076e-11
2.2721e-12
2.53487e-11
2.564e-12
2.51657e-11
2.89126e-12
2.49547e-11
3.25771e-12
2.4711e-11
3.66709e-12
2.44298e-11
4.12399e-12
2.41041e-11
4.63159e-12
2.37279e-11
5.19605e-12
2.32916e-11
5.81727e-12
2.27876e-11
6.50609e-12
2.22029e-11
7.25179e-12
2.15279e-11
8.07825e-12
2.07484e-11
8.94859e-12
1.98487e-11
9.91443e-12
1.88204e-11
1.08943e-11
1.76397e-11
1.19684e-11
1.6301e-11
1.30343e-11
1.47968e-11
1.41297e-11
1.31181e-11
1.51967e-11
1.12678e-11
1.6222e-11
9.25121e-12
1.71602e-11
7.08618e-12
1.79768e-11
4.79794e-12
1.8631e-11
2.42196e-12
1.90894e-11
1.93256e-11
2.65578e-11
1.25573e-14
2.65565e-11
3.78674e-14
2.65542e-11
6.3767e-14
2.6551e-11
9.0659e-14
2.65467e-11
1.18962e-13
2.65414e-11
1.49115e-13
2.65348e-11
1.81586e-13
2.6527e-11
2.1688e-13
2.65178e-11
2.55541e-13
2.65069e-11
2.98167e-13
2.64943e-11
3.45415e-13
2.64797e-11
3.98011e-13
2.64628e-11
4.56762e-13
2.64433e-11
5.22566e-13
2.64209e-11
5.96425e-13
2.63951e-11
6.79459e-13
2.63655e-11
7.72922e-13
2.63315e-11
8.78216e-13
2.62923e-11
9.96911e-13
2.62473e-11
1.13076e-12
2.61954e-11
1.28174e-12
2.61355e-11
1.45204e-12
2.60664e-11
1.64409e-12
2.59865e-11
1.86062e-12
2.58939e-11
2.10465e-12
2.57865e-11
2.37949e-12
2.56616e-11
2.68883e-12
2.55161e-11
3.03662e-12
2.53465e-11
3.42732e-12
2.5148e-11
3.86532e-12
2.49159e-11
4.35618e-12
2.46431e-11
4.90378e-12
2.43233e-11
5.51603e-12
2.39461e-11
6.19299e-12
2.35033e-11
6.94922e-12
2.29808e-11
7.7715e-12
2.23662e-11
8.69256e-12
2.16453e-11
9.66552e-12
2.07968e-11
1.07602e-11
1.98119e-11
1.18747e-11
1.86647e-11
1.31093e-11
1.73365e-11
1.43562e-11
1.58148e-11
1.56464e-11
1.40878e-11
1.69191e-11
1.21545e-11
1.81525e-11
1.00191e-11
1.92931e-11
7.70008e-12
2.02946e-11
5.22691e-12
2.11034e-11
2.64271e-12
2.16735e-11
2.19683e-11
2.6585e-11
1.28159e-14
2.65842e-11
3.86477e-14
2.65829e-11
6.50831e-14
2.6581e-11
9.25345e-14
2.65785e-11
1.21431e-13
2.65754e-11
1.52222e-13
2.65716e-11
1.85389e-13
2.65671e-11
2.21448e-13
2.65616e-11
2.60961e-13
2.65553e-11
3.04542e-13
2.65478e-11
3.52868e-13
2.65391e-11
4.06691e-13
2.6529e-11
4.66843e-13
2.65174e-11
5.34255e-13
2.65038e-11
6.0997e-13
2.64881e-11
6.95152e-13
2.64699e-11
7.91113e-13
2.64488e-11
8.99321e-13
2.64243e-11
1.02143e-12
2.63957e-11
1.1593e-12
2.63625e-11
1.315e-12
2.63236e-11
1.49089e-12
2.62781e-11
1.68959e-12
2.62247e-11
1.91403e-12
2.61618e-11
2.16751e-12
2.60876e-11
2.45368e-12
2.59998e-11
2.77663e-12
2.58955e-11
3.1408e-12
2.57717e-11
3.55129e-12
2.56236e-11
4.0132e-12
2.54471e-11
4.53313e-12
2.52346e-11
5.11575e-12
2.4981e-11
5.77109e-12
2.46734e-11
6.49901e-12
2.43069e-11
7.32002e-12
2.38599e-11
8.21437e-12
2.33269e-11
9.23572e-12
2.26814e-11
1.03029e-11
2.19012e-11
1.15593e-11
2.09854e-11
1.27808e-11
1.98625e-11
1.42544e-11
1.85396e-11
1.56803e-11
1.70099e-11
1.71892e-11
1.52367e-11
1.86958e-11
1.32191e-11
2.01768e-11
1.09502e-11
2.15651e-11
8.4514e-12
2.27969e-11
5.75528e-12
2.38016e-11
2.91577e-12
2.4515e-11
2.48858e-11
2.66099e-11
1.28811e-14
2.66097e-11
3.88452e-14
2.66094e-11
6.54176e-14
2.66089e-11
9.30146e-14
2.66083e-11
1.22069e-13
2.66075e-11
1.53034e-13
2.66065e-11
1.86397e-13
2.66052e-11
2.2268e-13
2.66037e-11
2.62451e-13
2.6602e-11
3.06333e-13
2.65998e-11
3.55014e-13
2.65972e-11
4.09257e-13
2.65942e-11
4.69911e-13
2.65905e-11
5.37927e-13
2.65861e-11
6.1437e-13
2.65808e-11
7.00437e-13
2.65744e-11
7.97476e-13
2.65668e-11
9.07005e-13
2.65575e-11
1.03074e-12
2.65461e-11
1.1706e-12
2.65324e-11
1.32878e-12
2.65155e-11
1.50774e-12
2.64948e-11
1.71024e-12
2.64694e-11
1.93944e-12
2.64381e-11
2.19884e-12
2.63993e-11
2.49242e-12
2.63513e-11
2.82465e-12
2.62915e-11
3.20046e-12
2.62173e-11
3.62555e-12
2.61243e-11
4.10579e-12
2.60088e-11
4.64876e-12
2.58633e-11
5.26025e-12
2.56829e-11
5.952e-12
2.54543e-11
6.72512e-12
2.51714e-11
7.6038e-12
2.48136e-11
8.56753e-12
2.4368e-11
9.68067e-12
2.38151e-11
1.08498e-11
2.3117e-11
1.22497e-11
2.22805e-11
1.36127e-11
2.12555e-11
1.52598e-11
1.99896e-11
1.69315e-11
1.84635e-11
1.87019e-11
1.66498e-11
2.04993e-11
1.45345e-11
2.22848e-11
1.21105e-11
2.39832e-11
9.39337e-12
2.55106e-11
6.42147e-12
2.67715e-11
3.26117e-12
2.76746e-11
2.81467e-11
2.66323e-11
1.27515e-14
2.66327e-11
3.84549e-14
2.66334e-11
6.47624e-14
2.66343e-11
9.20874e-14
2.66355e-11
1.2086e-13
2.6637e-11
1.51531e-13
2.66388e-11
1.84585e-13
2.66409e-11
2.20543e-13
2.66434e-11
2.5997e-13
2.66463e-11
3.03489e-13
2.66495e-11
3.51787e-13
2.66531e-11
4.05629e-13
2.66572e-11
4.65868e-13
2.66616e-11
5.33458e-13
2.66665e-11
6.09473e-13
2.66718e-11
6.95124e-13
2.66775e-11
7.91775e-13
2.66836e-11
9.00971e-13
2.66899e-11
1.02446e-12
2.66962e-11
1.16422e-12
2.67025e-11
1.32249e-12
2.67084e-11
1.50183e-12
2.67135e-11
1.70513e-12
2.67173e-11
1.93567e-12
2.6719e-11
2.19717e-12
2.67175e-11
2.49387e-12
2.67116e-11
2.83057e-12
2.66993e-11
3.21266e-12
2.66786e-11
3.6464e-12
2.66457e-11
4.13843e-12
2.65981e-11
4.69719e-12
2.65274e-11
5.32989e-12
2.64326e-11
6.04954e-12
2.62947e-11
6.85951e-12
2.612e-11
7.78688e-12
2.58662e-11
8.81136e-12
2.55552e-11
1.00138e-11
2.51149e-11
1.12662e-11
2.45405e-11
1.28717e-11
2.38805e-11
1.42365e-11
2.28653e-11
1.63335e-11
2.15914e-11
1.82136e-11
2.01165e-11
2.02037e-11
1.82898e-11
2.23356e-11
1.61019e-11
2.44853e-11
1.3515e-11
2.6578e-11
1.05496e-11
2.84831e-11
7.24737e-12
3.00783e-11
3.69222e-12
3.12335e-11
3.18421e-11
2.66599e-11
1.24283e-14
2.66608e-11
3.74809e-14
2.66625e-11
6.3124e-14
2.66648e-11
8.9762e-14
2.66678e-11
1.17815e-13
2.66717e-11
1.47726e-13
2.66763e-11
1.79969e-13
2.66818e-11
2.15053e-13
2.66882e-11
2.53535e-13
2.66957e-11
2.96026e-13
2.67042e-11
3.43204e-13
2.67141e-11
3.95821e-13
2.67252e-11
4.54721e-13
2.67378e-11
5.20847e-13
2.6752e-11
5.95266e-13
2.6768e-11
6.79181e-13
2.67858e-11
7.73953e-13
2.68056e-11
8.81126e-13
2.68276e-11
1.00246e-12
2.68519e-11
1.13994e-12
2.68786e-11
1.29585e-12
2.69076e-11
1.47278e-12
2.6939e-11
1.6737e-12
2.69727e-11
1.90198e-12
2.70084e-11
2.1615e-12
2.70455e-11
2.45669e-12
2.70835e-11
2.79263e-12
2.71209e-11
3.17509e-12
2.71566e-11
3.6108e-12
2.71874e-11
4.10719e-12
2.72116e-11
4.67337e-12
2.72218e-11
5.31826e-12
2.72169e-11
6.05549e-12
2.71806e-11
6.89238e-12
2.71133e-11
7.85605e-12
2.69842e-11
8.93373e-12
2.67883e-11
1.02101e-11
2.64912e-11
1.15552e-11
2.60104e-11
1.33378e-11
2.54512e-11
1.48036e-11
2.47327e-11
9.48313e-12
7.51664e-12
2.36566e-11
8.59879e-12
1.0652e-11
2.22108e-11
9.79678e-12
1.18235e-11
2.03704e-11
1.11069e-11
1.30468e-11
1.80833e-11
1.24739e-11
1.42801e-11
1.53106e-11
1.38551e-11
1.54774e-11
1.20422e-11
1.51851e-11
1.65528e-11
8.322e-12
1.63725e-11
1.74155e-11
4.25567e-12
1.7318e-11
1.79739e-11
1.79334e-11
1.81575e-11
2.66833e-11
1.1916e-14
2.66848e-11
3.59362e-14
2.66874e-11
6.05244e-14
2.66911e-11
8.60693e-14
2.66959e-11
1.12975e-13
2.6702e-11
1.41669e-13
2.67094e-11
1.72606e-13
2.67181e-11
2.06279e-13
2.67284e-11
2.43225e-13
2.67404e-11
2.84035e-13
2.67543e-11
3.29365e-13
2.67702e-11
3.79943e-13
2.67883e-11
4.36589e-13
2.68089e-11
5.00222e-13
2.68323e-11
5.71882e-13
2.68587e-11
6.52744e-13
2.68886e-11
7.44143e-13
2.69221e-11
8.47597e-13
2.69597e-11
9.64839e-13
2.70018e-11
1.09785e-12
2.70488e-11
1.24888e-12
2.7101e-11
1.42054e-12
2.71589e-11
1.6158e-12
2.72228e-11
1.83808e-12
2.7293e-11
2.09133e-12
2.73696e-11
2.38011e-12
2.74526e-11
2.70965e-12
2.75416e-11
3.08607e-12
2.76363e-11
3.51636e-12
2.77343e-11
4.00874e-12
2.78362e-11
4.57256e-12
2.79339e-11
5.21903e-12
2.80328e-11
5.96031e-12
2.81075e-11
6.81226e-12
2.81864e-11
7.78917e-12
2.81862e-11
8.91631e-12
2.82305e-11
1.02026e-11
2.80285e-11
1.17028e-11
2.80966e-11
1.33772e-11
1.41516e-11
1.54119e-11
1.31791e-11
-7.72042e-12
8.16933e-12
1.39589e-11
-1.29995e-11
1.2745e-11
8.86129e-12
-1.26073e-11
1.22961e-11
1.01491e-11
-1.19964e-11
1.15925e-11
1.15611e-11
-1.11462e-11
1.06113e-11
1.30577e-11
-1.00104e-11
9.32126e-12
1.45867e-11
-8.55622e-12
7.7121e-12
1.60599e-11
-6.78936e-12
5.79336e-12
1.73884e-11
-4.7275e-12
3.6029e-12
1.84547e-11
-2.42962e-12
1.22357e-12
1.91461e-11
2.67062e-11
1.12217e-14
2.67083e-11
3.38429e-14
2.67118e-11
5.70004e-14
2.67168e-11
8.10615e-14
2.67234e-11
1.06408e-13
2.67316e-11
1.33444e-13
2.67416e-11
1.626e-13
2.67536e-11
1.94343e-13
2.67676e-11
2.29182e-13
2.6784e-11
2.67677e-13
2.68029e-11
3.10452e-13
2.68246e-11
3.58201e-13
2.68495e-11
4.11703e-13
2.68779e-11
4.71839e-13
2.69102e-11
5.39602e-13
2.69468e-11
6.16119e-13
2.69883e-11
7.02675e-13
2.70352e-11
8.00736e-13
2.7088e-11
9.11976e-13
2.71476e-11
1.03832e-12
2.72145e-11
1.18197e-12
2.72896e-11
1.34546e-12
2.73736e-11
1.53175e-12
2.74675e-11
1.74421e-12
2.75721e-11
1.98679e-12
2.76881e-11
2.26405e-12
2.78165e-11
2.58132e-12
2.79576e-11
2.94486e-12
2.81122e-11
3.36185e-12
2.82795e-11
3.84105e-12
2.84605e-11
4.39199e-12
2.86504e-11
5.02764e-12
2.8853e-11
5.75934e-12
2.90521e-11
6.60908e-12
2.92619e-11
7.58381e-12
2.94353e-11
8.73261e-12
2.96259e-11
1.00231e-11
2.96916e-11
1.16124e-11
2.98543e-11
1.32463e-11
1.54574e-11
1.55983e-11
1.41448e-11
-8.23356e-12
8.46607e-12
1.5347e-11
-1.41384e-11
1.39593e-11
-9.37539e-12
9.5169e-12
-1.38746e-11
1.36293e-11
-1.0741e-11
1.098e-11
-1.33784e-11
1.30206e-11
-1.22487e-11
1.26136e-11
-1.26042e-11
1.20864e-11
-1.38605e-11
1.43934e-11
-1.14889e-11
1.07594e-11
-1.55118e-11
1.62622e-11
-9.93376e-12
9.01371e-12
-1.71377e-11
1.80665e-11
-7.98485e-12
6.85333e-12
-1.86053e-11
1.97373e-11
-5.62151e-12
4.3016e-12
-1.97735e-11
2.1092e-11
-2.91028e-12
1.46815e-12
-2.05048e-11
2.19475e-11
2.67283e-11
1.03556e-14
2.67309e-11
3.12312e-14
2.67353e-11
5.2603e-14
2.67416e-11
7.4811e-14
2.67498e-11
9.82088e-14
2.67601e-11
1.2317e-13
2.67726e-11
1.50095e-13
2.67875e-11
1.79415e-13
2.68051e-11
2.11603e-13
2.68256e-11
2.47182e-13
2.68493e-11
2.8673e-13
2.68766e-11
3.30895e-13
2.69079e-11
3.80405e-13
2.69437e-11
4.36081e-13
2.69844e-11
4.98854e-13
2.70308e-11
5.69785e-13
2.70834e-11
6.5008e-13
2.7143e-11
7.41123e-13
2.72105e-11
8.445e-13
2.72868e-11
9.62035e-13
2.73729e-11
1.09583e-12
2.74701e-11
1.24833e-12
2.75795e-11
1.42235e-12
2.77026e-11
1.62117e-12
2.78407e-11
1.84863e-12
2.79956e-11
2.10921e-12
2.81688e-11
2.40816e-12
2.83619e-11
2.75174e-12
2.85768e-11
3.14714e-12
2.88142e-11
3.60337e-12
2.9077e-11
4.13006e-12
2.93623e-11
4.74116e-12
2.96765e-11
5.448e-12
3.00056e-11
6.27567e-12
3.0368e-11
7.23028e-12
3.07194e-11
8.36835e-12
3.11071e-11
9.65868e-12
3.1427e-11
1.12598e-11
3.17487e-11
1.29755e-11
1.66886e-11
1.53171e-11
1.52772e-11
-8.47462e-12
8.51967e-12
1.66948e-11
-1.54387e-11
1.53544e-11
-9.80238e-12
9.87973e-12
-1.53465e-11
1.51942e-11
-1.13481e-11
1.15197e-11
-1.50184e-11
1.47472e-11
-1.30989e-11
1.3404e-11
-1.43913e-11
1.39381e-11
-1.50315e-11
1.55368e-11
-1.34022e-11
1.25948e-11
-1.70279e-11
1.79153e-11
-1.16751e-11
1.07029e-11
-1.91076e-11
2.01148e-11
-9.56518e-12
8.28208e-12
-2.10248e-11
2.232e-11
-6.84275e-12
5.2678e-12
-2.25832e-11
2.41622e-11
-3.57951e-12
1.81072e-12
-2.3561e-11
2.53321e-11
2.67485e-11
9.33048e-15
2.67516e-11
2.814e-14
2.67568e-11
4.73977e-14
2.67642e-11
6.74105e-14
2.67739e-11
8.84983e-14
2.67861e-11
1.10999e-13
2.68009e-11
1.35273e-13
2.68186e-11
1.61714e-13
2.68395e-11
1.90748e-13
2.68638e-11
2.2285e-13
2.6892e-11
2.58545e-13
2.69245e-11
2.98422e-13
2.69617e-11
3.43143e-13
2.70044e-11
3.93459e-13
2.7053e-11
4.50218e-13
2.71084e-11
5.14391e-13
2.71714e-11
5.87086e-13
2.7243e-11
6.69575e-13
2.73242e-11
7.63319e-13
2.74162e-11
8.70008e-13
2.75205e-11
9.91594e-13
2.76385e-11
1.13035e-12
2.77719e-11
1.28891e-12
2.79228e-11
1.47037e-12
2.80931e-11
1.67835e-12
2.82852e-11
1.91713e-12
2.85016e-11
2.19173e-12
2.87451e-11
2.50821e-12
2.90189e-11
2.87356e-12
2.93252e-11
3.2967e-12
2.96686e-11
3.78714e-12
3.00496e-11
4.35911e-12
3.04751e-11
5.02401e-12
3.09394e-11
5.80817e-12
3.14553e-11
6.71839e-12
3.2002e-11
7.81399e-12
3.26011e-11
9.06883e-12
3.32054e-11
1.06393e-11
3.38288e-11
1.23717e-11
1.79224e-11
1.46924e-11
1.65006e-11
-8.43499e-12
8.31753e-12
1.80562e-11
-1.68756e-11
1.69104e-11
-9.9746e-12
9.94084e-12
-1.70154e-11
1.69939e-11
-1.1697e-11
1.1743e-11
-1.69316e-11
1.68111e-11
-1.37165e-11
1.38778e-11
-1.65324e-11
1.63197e-11
-1.609e-11
1.63765e-11
-8.18068e-12
-9.81868e-12
7.79689e-12
9.87675e-12
-7.0481e-12
-1.13805e-11
6.74524e-12
1.14865e-11
-5.74191e-12
-1.26978e-11
5.33973e-12
1.29625e-11
-3.9825e-12
-1.37597e-11
3.46681e-12
1.41863e-11
-1.79967e-12
1.49163e-11
-1.43594e-11
1.20628e-12
2.67664e-11
8.16182e-15
2.67699e-11
2.46157e-14
2.67759e-11
4.14624e-14
2.67843e-11
5.89711e-14
2.67954e-11
7.74223e-14
2.68093e-11
9.71122e-14
2.68262e-11
1.18358e-13
2.68464e-11
1.41505e-13
2.68702e-11
1.66928e-13
2.6898e-11
1.95044e-13
2.69303e-11
2.26316e-13
2.69674e-11
2.61264e-13
2.70101e-11
3.00472e-13
2.7059e-11
3.44602e-13
2.71148e-11
3.94409e-13
2.71784e-11
4.50751e-13
2.72509e-11
5.14614e-13
2.73334e-11
5.8713e-13
2.74271e-11
6.69605e-13
2.75336e-11
7.6355e-13
2.76545e-11
8.70721e-13
2.77917e-11
9.93162e-13
2.79474e-11
1.13326e-12
2.81239e-11
1.29384e-12
2.83241e-11
1.47819e-12
2.8551e-11
1.69025e-12
2.88082e-11
1.93465e-12
2.90994e-11
2.21705e-12
2.94291e-11
2.544e-12
2.98017e-11
2.92394e-12
3.02234e-11
3.36603e-12
3.06979e-11
3.88388e-12
3.12345e-11
4.48919e-12
3.18334e-11
5.20687e-12
3.25092e-11
6.04739e-12
3.32532e-11
7.06356e-12
3.40843e-11
8.24865e-12
3.49833e-11
9.7261e-12
3.59474e-11
1.14269e-11
1.91814e-11
1.36356e-11
1.77997e-11
-8.10859e-12
7.83639e-12
1.94586e-11
-1.84243e-11
1.8606e-11
-9.85911e-12
9.67589e-12
-1.88643e-11
1.90074e-11
-1.17273e-11
1.16022e-11
-1.91263e-11
1.9166e-11
-1.39709e-11
1.39584e-11
-1.9106e-11
1.89425e-11
-1.66054e-11
1.6805e-11
-9.88926e-12
-1.02933e-11
9.49762e-12
1.04165e-11
-8.76049e-12
-1.2211e-11
8.44335e-12
1.24445e-11
-7.34863e-12
-1.41515e-11
6.89669e-12
1.45681e-11
-5.25266e-12
-1.58616e-11
4.60815e-12
1.64862e-11
-2.42404e-12
1.77302e-11
-1.69462e-11
1.63201e-12
2.67826e-11
6.86731e-15
2.67865e-11
2.07117e-14
2.67931e-11
3.48872e-14
2.68024e-11
4.96208e-14
2.68147e-11
6.51489e-14
2.68301e-11
8.17215e-14
2.68488e-11
9.96065e-14
2.68712e-11
1.19094e-13
2.68977e-11
1.40504e-13
2.69285e-11
1.64186e-13
2.69643e-11
1.90533e-13
2.70056e-11
2.19985e-13
2.70531e-11
2.53039e-13
2.71074e-11
2.90255e-13
2.71696e-11
3.32276e-13
2.72405e-11
3.79832e-13
2.73214e-11
4.33765e-13
2.74135e-11
4.95041e-13
2.75183e-11
5.6478e-13
2.76376e-11
6.44278e-13
2.77733e-11
7.35047e-13
2.79276e-11
8.3885e-13
2.81032e-11
9.57761e-13
2.83028e-11
1.09422e-12
2.853e-11
1.25112e-12
2.87883e-11
1.4319e-12
2.90824e-11
1.64066e-12
2.94171e-11
1.88241e-12
2.97982e-11
2.16302e-12
3.0232e-11
2.49007e-12
3.07264e-11
2.87194e-12
3.12888e-11
3.32097e-12
3.19306e-11
3.84844e-12
3.2659e-11
4.47684e-12
3.34903e-11
5.21846e-12
3.44304e-11
6.11964e-12
3.54991e-11
7.18501e-12
3.67013e-11
8.51652e-12
3.80457e-11
1.00911e-11
2.042e-11
1.21214e-11
1.91273e-11
-7.48209e-12
7.05187e-12
2.08524e-11
-2.00382e-11
2.03979e-11
-9.41226e-12
9.04679e-12
-2.08487e-11
2.12086e-11
-1.13759e-11
1.10267e-11
-2.1571e-11
2.18664e-11
-1.38227e-11
1.35426e-11
-2.21013e-11
2.22277e-11
-1.68568e-11
1.67457e-11
-1.1835e-11
-1.07047e-11
1.15262e-11
1.07605e-11
-1.10116e-11
-1.31641e-11
1.07439e-11
1.33754e-11
-9.70373e-12
-1.59408e-11
9.22156e-12
1.64133e-11
-7.27319e-12
-1.86562e-11
6.44962e-12
1.9479e-11
-3.48199e-12
2.16695e-11
-2.05447e-11
2.35682e-12
2.67959e-11
5.46669e-15
2.68002e-11
1.64876e-14
2.68073e-11
2.77724e-14
2.68174e-11
3.95022e-14
2.68307e-11
5.18655e-14
2.68474e-11
6.50617e-14
2.68677e-11
7.93047e-14
2.68919e-11
9.48263e-14
2.69206e-11
1.11881e-13
2.6954e-11
1.30749e-13
2.69928e-11
1.51746e-13
2.70376e-11
1.75222e-13
2.7089e-11
2.01576e-13
2.7148e-11
2.31258e-13
2.72156e-11
2.64783e-13
2.72927e-11
3.02739e-13
2.73806e-11
3.45803e-13
2.74809e-11
3.94754e-13
2.75952e-11
4.50496e-13
2.77255e-11
5.14079e-13
2.78738e-11
5.86728e-13
2.80428e-11
6.69878e-13
2.82354e-11
7.65217e-13
2.84549e-11
8.74745e-13
2.87052e-11
1.00083e-12
2.89909e-11
1.14631e-12
2.9317e-11
1.31459e-12
2.96897e-11
1.50981e-12
3.0116e-11
1.7369e-12
3.06038e-11
2.00223e-12
3.11631e-11
2.31297e-12
3.18043e-11
2.67952e-12
3.25417e-11
3.11203e-12
3.33883e-11
3.62922e-12
3.43651e-11
4.24406e-12
3.54884e-11
4.99373e-12
3.67865e-11
5.89163e-12
3.82832e-11
7.01479e-12
4.00071e-11
8.37439e-12
2.15729e-11
1.01215e-11
2.04247e-11
-6.54041e-12
5.9499e-12
2.21659e-11
-2.16447e-11
2.22086e-11
-8.58324e-12
8.01122e-12
-2.28839e-11
2.35113e-11
-1.05483e-11
9.927e-12
-2.41796e-11
2.48266e-11
-1.30935e-11
1.24553e-11
-2.54645e-11
2.60505e-11
-1.64171e-11
1.58379e-11
-1.41691e-11
-1.07173e-11
1.40196e-11
1.06253e-11
-1.39966e-11
-1.38265e-11
1.38834e-11
1.38861e-11
-1.32657e-11
-1.77641e-11
1.28945e-11
1.81138e-11
-1.06585e-11
-2.22474e-11
9.64425e-12
2.32743e-11
-5.48797e-12
2.75685e-11
-2.58351e-11
3.75692e-12
2.68063e-11
3.98154e-15
2.68108e-11
1.20084e-14
2.68184e-11
2.02278e-14
2.68291e-11
2.87716e-14
2.68432e-11
3.77773e-14
2.68609e-11
4.73906e-14
2.68824e-11
5.77673e-14
2.69081e-11
6.90768e-14
2.69385e-11
8.15047e-14
2.6974e-11
9.52566e-14
2.70152e-11
1.10562e-13
2.70628e-11
1.27678e-13
2.71175e-11
1.46895e-13
2.71802e-11
1.68545e-13
2.7252e-11
1.93004e-13
2.7334e-11
2.20704e-13
2.74277e-11
2.52142e-13
2.75346e-11
2.87891e-13
2.76565e-11
3.28617e-13
2.77955e-11
3.75094e-13
2.79541e-11
4.28228e-13
2.81349e-11
4.8908e-13
2.83413e-11
5.58904e-13
2.85769e-11
6.39184e-13
2.88461e-11
7.31688e-13
2.91539e-11
8.3854e-13
2.95063e-11
9.62285e-13
2.99101e-11
1.10605e-12
3.03736e-11
1.27358e-12
3.09062e-11
1.46969e-12
3.15196e-11
1.6999e-12
3.22268e-11
1.97214e-12
3.30451e-11
2.29447e-12
3.39926e-11
2.6811e-12
3.5095e-11
3.14323e-12
3.63786e-11
3.70865e-12
3.78811e-11
4.39189e-12
3.96439e-11
5.24948e-12
4.17201e-11
6.30227e-12
2.25574e-11
7.66055e-12
2.16172e-11
-5.28224e-12
4.54129e-12
2.33013e-11
-2.31438e-11
2.39229e-11
-7.33317e-12
6.54609e-12
-2.48373e-11
2.57631e-11
-9.15817e-12
8.23609e-12
-2.67823e-11
2.78536e-11
-1.16098e-11
1.05442e-11
-2.89975e-11
3.01946e-11
-1.49671e-11
1.3774e-11
-1.67938e-11
-9.99904e-12
1.69069e-11
9.66998e-12
-1.77518e-11
-1.36441e-11
1.79698e-11
1.33767e-11
-1.84234e-11
-1.90468e-11
1.90482e-11