/*--------------------------------*- C++ -*----------------------------------*\
| =========                 |                                                 |
| \\      /  F ield         | foam-extend: Open Source CFD                    |
|  \\    /   O peration     | Version:     4.0                                |
|   \\  /    A nd           | Web:         http://www.foam-extend.org         |
|    \\/     M anipulation  |                                                 |
\*---------------------------------------------------------------------------*/
FoamFile
{
    version     2.0;
    format      ascii;
    class       volVectorField;
    location    "0.0001";
    object      U;
}
// * * * * * * * * * * * * * * * * * * * * * * * * * * * * * * * * * * * * * //

dimensions      [0 1 -1 0 0 0 0];

internalField   nonuniform List<vector> 
28770
(
(0.000899218 2.62307e-08 0)
(0.000899111 7.90926e-08 0)
(0.000898896 1.33162e-07 0)
(0.000898569 1.89262e-07 0)
(0.000898126 2.48245e-07 0)
(0.000897559 3.11004e-07 0)
(0.00089686 3.78484e-07 0)
(0.000896018 4.51696e-07 0)
(0.000895021 5.31728e-07 0)
(0.000893854 6.19761e-07 0)
(0.000892498 7.17081e-07 0)
(0.000890934 8.25097e-07 0)
(0.000889139 9.45351e-07 0)
(0.000887086 1.07954e-06 0)
(0.000884744 1.22953e-06 0)
(0.00088208 1.39737e-06 0)
(0.000879055 1.58531e-06 0)
(0.000875625 1.7958e-06 0)
(0.000871743 2.03155e-06 0)
(0.000867353 2.29546e-06 0)
(0.000862395 2.5907e-06 0)
(0.000856802 2.92068e-06 0)
(0.0008505 3.28903e-06 0)
(0.000843406 3.6996e-06 0)
(0.000835431 4.15642e-06 0)
(0.000826475 4.66364e-06 0)
(0.000816431 5.22549e-06 0)
(0.000805183 5.84613e-06 0)
(0.000792608 6.52961e-06 0)
(0.000778572 7.27958e-06 0)
(0.000762936 8.0993e-06 0)
(0.000745554 8.99105e-06 0)
(0.000726276 9.95643e-06 0)
(0.00070495 1.0995e-05 0)
(0.000681427 1.21058e-05 0)
(0.000655562 1.32838e-05 0)
(0.000627219 1.45242e-05 0)
(0.000596281 1.58155e-05 0)
(0.000562649 1.71481e-05 0)
(0.000526256 1.85026e-05 0)
(0.000487069 1.98633e-05 0)
(0.0004451 2.12038e-05 0)
(0.000400411 2.25015e-05 0)
(0.000353117 2.37259e-05 0)
(0.000303397 2.48496e-05 0)
(0.000251487 2.5842e-05 0)
(0.000197686 2.66757e-05 0)
(0.000142347 2.73254e-05 0)
(8.58738e-05 2.77708e-05 0)
(2.87029e-05 2.79972e-05 0)
(0.000899321 7.83028e-08 0)
(0.000899216 2.36104e-07 0)
(0.000899004 3.97511e-07 0)
(0.000898682 5.64983e-07 0)
(0.000898245 7.41065e-07 0)
(0.000897686 9.28423e-07 0)
(0.000896998 1.12988e-06 0)
(0.000896168 1.34846e-06 0)
(0.000895186 1.58741e-06 0)
(0.000894035 1.85026e-06 0)
(0.000892699 2.14085e-06 0)
(0.000891158 2.4634e-06 0)
(0.000889388 2.82252e-06 0)
(0.000887364 3.22328e-06 0)
(0.000885055 3.67127e-06 0)
(0.000882428 4.17261e-06 0)
(0.000879445 4.73403e-06 0)
(0.000876062 5.36291e-06 0)
(0.000872232 6.06731e-06 0)
(0.0008679 6.85598e-06 0)
(0.000863007 7.73842e-06 0)
(0.000857486 8.72485e-06 0)
(0.000851263 9.8262e-06 0)
(0.000844256 1.1054e-05 0)
(0.000836375 1.24205e-05 0)
(0.000827521 1.39381e-05 0)
(0.000817589 1.56196e-05 0)
(0.00080646 1.74777e-05 0)
(0.000794012 1.95246e-05 0)
(0.000780109 2.17715e-05 0)
(0.000764612 2.42283e-05 0)
(0.000747372 2.69022e-05 0)
(0.000728238 2.97984e-05 0)
(0.000707055 3.29157e-05 0)
(0.000683668 3.62517e-05 0)
(0.00065793 3.97913e-05 0)
(0.000629698 4.35213e-05 0)
(0.00059885 4.74065e-05 0)
(0.00056528 5.14193e-05 0)
(0.000528914 5.55007e-05 0)
(0.000489714 5.96044e-05 0)
(0.000447683 6.36501e-05 0)
(0.00040288 6.75701e-05 0)
(0.000355416 7.12713e-05 0)
(0.000305469 7.46705e-05 0)
(0.000253275 7.7674e-05 0)
(0.000199138 8.01989e-05 0)
(0.00014342 8.21672e-05 0)
(8.65316e-05 8.35171e-05 0)
(2.89246e-05 8.42035e-05 0)
(0.000899526 1.2922e-07 0)
(0.000899424 3.89637e-07 0)
(0.000899218 6.56006e-07 0)
(0.000898906 9.32393e-07 0)
(0.000898482 1.223e-06 0)
(0.00089794 1.53224e-06 0)
(0.000897271 1.86476e-06 0)
(0.000896466 2.22557e-06 0)
(0.000895512 2.62003e-06 0)
(0.000894395 3.05399e-06 0)
(0.000893098 3.5338e-06 0)
(0.000891602 4.06643e-06 0)
(0.000889883 4.65953e-06 0)
(0.000887917 5.32149e-06 0)
(0.000885674 6.06158e-06 0)
(0.00088312 6.88995e-06 0)
(0.00088022 7.81777e-06 0)
(0.000876931 8.85731e-06 0)
(0.000873204 1.00219e-05 0)
(0.000868989 1.13263e-05 0)
(0.000864225 1.27861e-05 0)
(0.000858847 1.44186e-05 0)
(0.000852781 1.62419e-05 0)
(0.000845946 1.82754e-05 0)
(0.000838255 2.05396e-05 0)
(0.000829607 2.30555e-05 0)
(0.000819897 2.58447e-05 0)
(0.000809007 2.89288e-05 0)
(0.000796812 3.23285e-05 0)
(0.000783178 3.60633e-05 0)
(0.00076796 4.01506e-05 0)
(0.000751008 4.4603e-05 0)
(0.000732164 4.94304e-05 0)
(0.000711269 5.46317e-05 0)
(0.000688159 6.02049e-05 0)
(0.00066268 6.61246e-05 0)
(0.000634675 7.23725e-05 0)
(0.000604014 7.88871e-05 0)
(0.000570574 8.56283e-05 0)
(0.00053427 9.24911e-05 0)
(0.000495049 9.94053e-05 0)
(0.0004529 0.000106228 0)
(0.000407873 0.000112851 0)
(0.000360069 0.000119111 0)
(0.000309666 0.000124869 0)
(0.0002569 0.000129962 0)
(0.000202085 0.000134249 0)
(0.000145596 0.000137593 0)
(8.78676e-05 0.000139889 0)
(2.9375e-05 0.000141056 0)
(0.000899829 1.78234e-07 0)
(0.000899732 5.37429e-07 0)
(0.000899536 9.04846e-07 0)
(0.000899237 1.28609e-06 0)
(0.000898832 1.68698e-06 0)
(0.000898315 2.1136e-06 0)
(0.000897676 2.57238e-06 0)
(0.000896908 3.07024e-06 0)
(0.000895997 3.6146e-06 0)
(0.00089493 4.21354e-06 0)
(0.00089369 4.87586e-06 0)
(0.00089226 5.61122e-06 0)
(0.000890617 6.43021e-06 0)
(0.000888737 7.34449e-06 0)
(0.000886591 8.3669e-06 0)
(0.000884148 9.51157e-06 0)
(0.000881371 1.0794e-05 0)
(0.00087822 1.22314e-05 0)
(0.000874649 1.38423e-05 0)
(0.000870607 1.56471e-05 0)
(0.000866035 1.76681e-05 0)
(0.00086087 1.99291e-05 0)
(0.000855039 2.24558e-05 0)
(0.000848464 2.52757e-05 0)
(0.000841055 2.84175e-05 0)
(0.000832716 3.19113e-05 0)
(0.00082334 3.5788e-05 0)
(0.000812809 4.00783e-05 0)
(0.000800998 4.48129e-05 0)
(0.000787768 5.00198e-05 0)
(0.000772973 5.57253e-05 0)
(0.000756459 6.19485e-05 0)
(0.000738058 6.87064e-05 0)
(0.000717605 7.59984e-05 0)
(0.000694922 8.38266e-05 0)
(0.000669844 9.21544e-05 0)
(0.000642195 0.000100964 0)
(0.00061183 0.000110165 0)
(0.000578601 0.000119711 0)
(0.000542404 0.000129446 0)
(0.000503165 0.000139281 0)
(0.000460849 0.000149006 0)
(0.000415495 0.00015847 0)
(0.000367184 0.000167434 0)
(0.000316094 0.000175697 0)
(0.000262459 0.00018302 0)
(0.000206611 0.000189193 0)
(0.000148942 0.000194016 0)
(8.99224e-05 0.000197329 0)
(3.00679e-05 0.000199016 0)
(0.000900227 2.24612e-07 0)
(0.000900135 6.77278e-07 0)
(0.000899951 1.14032e-06 0)
(0.000899672 1.62082e-06 0)
(0.000899292 2.12611e-06 0)
(0.000898806 2.66387e-06 0)
(0.000898208 3.24226e-06 0)
(0.000897487 3.86998e-06 0)
(0.000896632 4.55645e-06 0)
(0.00089563 5.31187e-06 0)
(0.000894467 6.1474e-06 0)
(0.000893124 7.07526e-06 0)
(0.00089158 8.1089e-06 0)
(0.000889813 9.26312e-06 0)
(0.000887796 1.05542e-05 0)
(0.000885497 1.20002e-05 0)
(0.000882883 1.36209e-05 0)
(0.000879915 1.54381e-05 0)
(0.000876549 1.74757e-05 0)
(0.000872735 1.97598e-05 0)
(0.000868418 2.23188e-05 0)
(0.000863535 2.51838e-05 0)
(0.000858016 2.83878e-05 0)
(0.000851784 3.19664e-05 0)
(0.000844752 3.59572e-05 0)
(0.000836824 4.03997e-05 0)
(0.000827893 4.53344e-05 0)
(0.000817844 5.08025e-05 0)
(0.000806547 5.68451e-05 0)
(0.000793863 6.35005e-05 0)
(0.00077964 7.08056e-05 0)
(0.000763718 7.87875e-05 0)
(0.000745921 8.74735e-05 0)
(0.000726074 9.68643e-05 0)
(0.000703979 0.000106972 0)
(0.000679461 0.000117748 0)
(0.000652311 0.000129185 0)
(0.00062237 0.000141151 0)
(0.000589454 0.000153619 0)
(0.000553433 0.000166352 0)
(0.000514202 0.000179277 0)
(0.000471689 0.000192074 0)
(0.000425917 0.000204579 0)
(0.000376937 0.000216447 0)
(0.000324927 0.000227424 0)
(0.000270115 0.000237174 0)
(0.000212853 0.000245414 0)
(0.000153563 0.000251862 0)
(9.27631e-05 0.000256299 0)
(3.10263e-05 0.00025856 0)
(0.000900712 2.67667e-07 0)
(0.000900629 8.07111e-07 0)
(0.000900459 1.35894e-06 0)
(0.000900202 1.93162e-06 0)
(0.000899854 2.53389e-06 0)
(0.000899408 3.17495e-06 0)
(0.000898857 3.86452e-06 0)
(0.000898195 4.61304e-06 0)
(0.000897409 5.43176e-06 0)
(0.000896488 6.33291e-06 0)
(0.000895417 7.32985e-06 0)
(0.000894181 8.43727e-06 0)
(0.000892759 9.6713e-06 0)
(0.000891131 1.10497e-05 0)
(0.000889271 1.25922e-05 0)
(0.000887151 1.43205e-05 0)
(0.000884737 1.62585e-05 0)
(0.000881995 1.84325e-05 0)
(0.000878881 2.08717e-05 0)
(0.000875349 2.36077e-05 0)
(0.000871346 2.66753e-05 0)
(0.000866812 3.01124e-05 0)
(0.000861681 3.39597e-05 0)
(0.000855875 3.82611e-05 0)
(0.000849313 4.30634e-05 0)
(0.000841898 4.84158e-05 0)
(0.000833526 5.43696e-05 0)
(0.00082408 6.0977e-05 0)
(0.000813431 6.82909e-05 0)
(0.000801438 7.63613e-05 0)
(0.000787942 8.52381e-05 0)
(0.000772779 9.49581e-05 0)
(0.000755758 0.000105563 0)
(0.000736698 0.000117056 0)
(0.00071537 0.000129467 0)
(0.000691594 0.000142729 0)
(0.00066511 0.000156864 0)
(0.000635755 0.000171689 0)
(0.000603276 0.000187209 0)
(0.000567527 0.000203105 0)
(0.000528351 0.000219317 0)
(0.000485623 0.000235429 0)
(0.00043936 0.000251244 0)
(0.000389553 0.000266309 0)
(0.000336388 0.000280296 0)
(0.000280074 0.000292758 0)
(0.000220993 0.000303324 0)
(0.000159601 0.000311611 0)
(9.648e-05 0.000317324 0)
(3.22811e-05 0.000320237 0)
(0.000901279 3.06757e-07 0)
(0.000901204 9.24991e-07 0)
(0.000901052 1.55745e-06 0)
(0.000900822 2.21385e-06 0)
(0.000900509 2.90425e-06 0)
(0.000900109 3.63921e-06 0)
(0.000899616 4.42992e-06 0)
(0.000899021 5.28838e-06 0)
(0.000898316 6.22755e-06 0)
(0.000897489 7.26154e-06 0)
(0.000896528 8.40577e-06 0)
(0.000895416 9.67718e-06 0)
(0.000894138 1.10945e-05 0)
(0.000892673 1.26782e-05 0)
(0.000890998 1.44512e-05 0)
(0.000889087 1.64387e-05 0)
(0.00088691 1.86686e-05 0)
(0.000884432 2.11717e-05 0)
(0.000881616 2.39818e-05 0)
(0.000878418 2.71364e-05 0)
(0.000874787 3.06764e-05 0)
(0.000870667 3.46465e-05 0)
(0.000865995 3.90951e-05 0)
(0.000860698 4.40748e-05 0)
(0.000854695 4.96417e-05 0)
(0.000847895 5.58554e-05 0)
(0.000840193 6.27786e-05 0)
(0.000831475 7.04758e-05 0)
(0.000821611 7.90134e-05 0)
(0.000810457 8.84548e-05 0)
(0.00079785 9.8866e-05 0)
(0.00078362 0.000110296 0)
(0.000767558 0.000122806 0)
(0.00074948 0.000136403 0)
(0.000729118 0.000151149 0)
(0.000706288 0.000166948 0)
(0.000680668 0.000183888 0)
(0.000652084 0.000201685 0)
(0.000620215 0.000220469 0)
(0.000584872 0.000239709 0)
(0.000545853 0.000259524 0)
(0.000502951 0.000279216 0)
(0.000456154 0.000298688 0)
(0.000405384 0.000317286 0)
(0.000350826 0.000334651 0)
(0.000292663 0.000350179 0)
(0.000231313 0.000363398 0)
(0.000167272 0.000373798 0)
(0.00010121 0.000380985 0)
(3.3879e-05 0.000384655 0)
(0.000901919 3.4129e-07 0)
(0.000901853 1.02913e-06 0)
(0.000901721 1.73284e-06 0)
(0.000901521 2.46324e-06 0)
(0.000901249 3.23157e-06 0)
(0.000900902 4.04962e-06 0)
(0.000900472 4.92988e-06 0)
(0.000899955 5.88577e-06 0)
(0.000899341 6.93179e-06 0)
(0.00089862 8.08374e-06 0)
(0.000897782 9.3589e-06 0)
(0.000896813 1.07763e-05 0)
(0.000895698 1.23569e-05 0)
(0.000894418 1.4124e-05 0)
(0.000892953 1.61032e-05 0)
(0.00089128 1.83231e-05 0)
(0.000889372 2.08153e-05 0)
(0.000887197 2.36147e-05 0)
(0.000884721 2.67599e-05 0)
(0.000881904 3.02938e-05 0)
(0.0008787 3.42632e-05 0)
(0.000875056 3.87197e-05 0)
(0.000870913 4.37195e-05 0)
(0.000866202 4.93237e-05 0)
(0.000860848 5.55982e-05 0)
(0.000854761 6.26134e-05 0)
(0.000847841 7.04444e-05 0)
(0.000839977 7.91688e-05 0)
(0.000831035 8.88684e-05 0)
(0.000820877 9.96214e-05 0)
(0.000809328 0.000111513 0)
(0.000796221 0.000124607 0)
(0.000781321 0.000138991 0)
(0.00076445 0.000154673 0)
(0.000745279 0.000171761 0)
(0.000723651 0.00019013 0)
(0.000699123 0.000209939 0)
(0.000671574 0.000230823 0)
(0.000640509 0.000253011 0)
(0.000605768 0.000275848 0)
(0.000567035 0.000299505 0)
(0.000523972 0.000323196 0)
(0.000476637 0.000346756 0)
(0.000424766 0.000369402 0)
(0.000368596 0.000390661 0)
(0.000308222 0.000409768 0)
(0.000244121 0.000426108 0)
(0.000176822 0.000439011 0)
(0.000107111 0.000447953 0)
(3.5875e-05 0.000452528 0)
(0.000902621 3.70741e-07 0)
(0.000902567 1.11795e-06 0)
(0.000902457 1.88244e-06 0)
(0.00090229 2.67602e-06 0)
(0.000902063 3.51091e-06 0)
(0.000901772 4.39996e-06 0)
(0.000901414 5.35683e-06 0)
(0.000900981 6.39616e-06 0)
(0.000900468 7.53379e-06 0)
(0.000899866 8.78701e-06 0)
(0.000899164 1.01748e-05 0)
(0.000898352 1.17179e-05 0)
(0.000897416 1.34395e-05 0)
(0.000896341 1.53651e-05 0)
(0.00089511 1.75231e-05 0)
(0.000893701 1.9945e-05 0)
(0.000892091 2.26657e-05 0)
(0.000890253 2.57242e-05 0)
(0.000888156 2.91636e-05 0)
(0.000885765 3.30316e-05 0)
(0.000883037 3.73809e-05 0)
(0.000879926 4.22699e-05 0)
(0.000876378 4.77623e-05 0)
(0.000872329 5.39279e-05 0)
(0.000867708 6.08426e-05 0)
(0.000862431 6.85882e-05 0)
(0.000856403 7.72528e-05 0)
(0.000849515 8.69283e-05 0)
(0.000841637 9.77138e-05 0)
(0.00083263 0.000109705 0)
(0.000822314 0.000123011 0)
(0.000810525 0.000137709 0)
(0.000796998 0.00015393 0)
(0.000781567 0.000171676 0)
(0.000763835 0.000191139 0)
(0.000743669 0.000212112 0)
(0.000720513 0.000234968 0)
(0.000694258 0.000259035 0)
(0.000664301 0.000285048 0)
(0.000630397 0.000311618 0)
(0.000592214 0.000339779 0)
(0.000549217 0.00036774 0)
(0.000501397 0.000395947 0)
(0.000448374 0.000423104 0)
(0.00039035 0.000448838 0)
(0.000327371 0.00047209 0)
(0.000259946 0.000492102 0)
(0.000188662 0.000507979 0)
(0.000114445 0.000519025 0)
(3.83584e-05 0.000524688 0)
(0.000903376 3.9466e-07 0)
(0.000903333 1.1901e-06 0)
(0.000903247 2.00398e-06 0)
(0.000903116 2.84891e-06 0)
(0.000902937 3.73795e-06 0)
(0.000902709 4.68485e-06 0)
(0.000902427 5.70419e-06 0)
(0.000902086 6.81165e-06 0)
(0.000901682 8.02422e-06 0)
(0.000901206 9.36044e-06 0)
(0.000900652 1.08406e-05 0)
(0.00090001 1.24873e-05 0)
(0.000899269 1.43252e-05 0)
(0.000898417 1.6382e-05 0)
(0.000897438 1.86884e-05 0)
(0.000896316 2.12785e-05 0)
(0.000895031 2.41904e-05 0)
(0.00089356 2.74665e-05 0)
(0.000891877 3.1154e-05 0)
(0.00088995 3.53054e-05 0)
(0.000887746 3.99789e-05 0)
(0.000885221 4.5239e-05 0)
(0.000882328 5.1157e-05 0)
(0.00087901 5.78113e-05 0)
(0.000875203 6.52879e-05 0)
(0.000870829 7.36799e-05 0)
(0.0008658 8.30892e-05 0)
(0.000860012 9.3623e-05 0)
(0.000853338 0.000105399 0)
(0.000845647 0.000118532 0)
(0.000836749 0.000133157 0)
(0.000826497 0.000149372 0)
(0.00081458 0.000167349 0)
(0.000800884 0.000187095 0)
(0.000784873 0.000208878 0)
(0.000766567 0.000232456 0)
(0.000745069 0.00025832 0)
(0.000720611 0.000285725 0)
(0.000691997 0.000315492 0)
(0.00065936 0.00034627 0)
(0.000621988 0.000378879 0)
(0.00057897 0.000411945 0)
(0.000530848 0.000445398 0)
(0.000476556 0.000478013 0)
(0.000416561 0.000509088 0)
(0.000350585 0.0005374 0)
(0.000279263 0.000561912 0)
(0.000203184 0.000581473 0)
(0.000123473 0.000595137 0)
(4.14208e-05 0.000602163 0)
(0.000904173 4.1267e-07 0)
(0.000904142 1.24442e-06 0)
(0.000904081 2.09552e-06 0)
(0.000903987 2.97918e-06 0)
(0.00090386 3.90912e-06 0)
(0.000903698 4.89976e-06 0)
(0.000903496 5.96644e-06 0)
(0.000903253 7.12564e-06 0)
(0.000902964 8.39525e-06 0)
(0.000902623 9.79481e-06 0)
(0.000902226 1.13458e-05 0)
(0.000901764 1.3072e-05 0)
(0.00090123 1.49996e-05 0)
(0.000900614 1.7158e-05 0)
(0.000899904 1.95799e-05 0)
(0.000899088 2.23015e-05 0)
(0.00089815 2.53637e-05 0)
(0.000897072 2.88119e-05 0)
(0.000895832 3.2697e-05 0)
(0.000894406 3.70756e-05 0)
(0.000892764 4.20111e-05 0)
(0.000890872 4.75739e-05 0)
(0.000888688 5.38423e-05 0)
(0.000886166 6.09029e-05 0)
(0.000883246 6.88516e-05 0)
(0.000879862 7.77935e-05 0)
(0.000875931 8.78442e-05 0)
(0.00087136 9.91272e-05 0)
(0.000866027 0.000111781 0)
(0.00085981 0.00012594 0)
(0.000852512 0.000141775 0)
(0.000844004 0.000159399 0)
(0.000833935 0.000179054 0)
(0.000822231 0.000200723 0)
(0.000808251 0.00022486 0)
(0.000792082 0.000250996 0)
(0.000772673 0.000280229 0)
(0.000750238 0.000310846 0)
(0.000723585 0.000345469 0)
(0.000692463 0.000380016 0)
(0.000656521 0.00041901 0)
(0.000614351 0.000457008 0)
(0.000566089 0.000496577 0)
(0.000510737 0.000535097 0)
(0.0004485 0.000572375 0)
(0.000379095 0.00060661 0)
(0.000303101 0.000636536 0)
(0.000221195 0.000660587 0)
(0.000134704 0.000677485 0)
(4.52377e-05 0.000686204 0)
(0.000904999 4.24484e-07 0)
(0.000904981 1.28007e-06 0)
(0.000904946 2.15561e-06 0)
(0.000904892 3.06476e-06 0)
(0.000904818 4.02167e-06 0)
(0.000904723 5.04124e-06 0)
(0.000904606 6.13933e-06 0)
(0.000904465 7.33301e-06 0)
(0.000904295 8.6408e-06 0)
(0.000904095 1.0083e-05 0)
(0.000903861 1.16818e-05 0)
(0.000903588 1.34621e-05 0)
(0.00090327 1.54512e-05 0)
(0.000902901 1.76797e-05 0)
(0.000902474 2.01819e-05 0)
(0.000901979 2.29958e-05 0)
(0.000901405 2.61645e-05 0)
(0.00090074 2.97358e-05 0)
(0.000899968 3.37638e-05 0)
(0.00089907 3.83088e-05 0)
(0.000898025 4.34384e-05 0)
(0.000896805 4.92285e-05 0)
(0.000895379 5.57638e-05 0)
(0.000893707 6.31387e-05 0)
(0.000891741 7.14585e-05 0)
(0.000889426 8.08396e-05 0)
(0.000886689 9.14116e-05 0)
(0.000883449 0.000103314 0)
(0.000879591 0.000116707 0)
(0.000875015 0.000131748 0)
(0.000869511 0.000148637 0)
(0.000862998 0.00016752 0)
(0.000855042 0.000188682 0)
(0.000845736 0.000212144 0)
(0.000834098 0.000238422 0)
(0.000820781 0.000267105 0)
(0.000803671 0.000299276 0)
(0.000784491 0.000333523 0)
(0.000759724 0.00037188 0)
(0.000731369 0.000411634 0)
(0.000697376 0.000454947 0)
(0.000654919 0.000500071 0)
(0.000607309 0.000546518 0)
(0.000550774 0.000592845 0)
(0.000486583 0.000637797 0)
(0.000413408 0.000679603 0)
(0.000332115 0.000716441 0)
(0.00024328 0.000746309 0)
(0.000148556 0.000767417 0)
(4.9958e-05 0.000778354 0)
(0.000905842 4.29907e-07 0)
(0.000905837 1.29644e-06 0)
(0.000905828 2.18326e-06 0)
(0.000905815 3.10421e-06 0)
(0.000905796 4.0737e-06 0)
(0.000905771 5.10689e-06 0)
(0.00090574 6.21992e-06 0)
(0.000905702 7.43018e-06 0)
(0.000905656 8.75657e-06 0)
(0.000905601 1.02198e-05 0)
(0.000905534 1.18427e-05 0)
(0.000905455 1.36506e-05 0)
(0.00090536 1.56716e-05 0)
(0.000905246 1.79373e-05 0)
(0.00090511 2.04828e-05 0)
(0.000904946 2.33477e-05 0)
(0.00090475 2.65764e-05 0)
(0.000904513 3.02189e-05 0)
(0.000904226 3.43315e-05 0)
(0.000903879 3.89776e-05 0)
(0.000903456 4.42284e-05 0)
(0.00090294 5.01643e-05 0)
(0.000902309 5.68755e-05 0)
(0.000901534 6.44635e-05 0)
(0.000900578 7.30423e-05 0)
(0.0008994 8.2739e-05 0)
(0.000897938 9.36968e-05 0)
(0.000896129 0.000106072 0)
(0.000893868 0.000120046 0)
(0.000891075 0.000135799 0)
(0.000887539 0.000153571 0)
(0.000883216 0.000173531 0)
(0.00087763 0.000196057 0)
(0.000870935 0.000221124 0)
(0.000862067 0.000249579 0)
(0.000851669 0.00028052 0)
(0.000837708 0.000316438 0)
(0.000821331 0.000353338 0)
(0.000800069 0.000398739 0)
(0.0007738 0.00044042 0)
(0.000743117 0.000495346 0)
(0.000704015 0.000545281 0)
(0.000656931 0.000599432 0)
(0.000600116 0.000653543 0)
(0.000533451 0.00070732 0)
(0.000456101 0.00075807 0)
(0.000368418 0.000803351 0)
(0.000271109 0.000840468 0)
(0.000166082 0.000866917 0)
(5.59476e-05 0.000880699 0)
(0.000906689 4.28835e-07 0)
(0.000906698 1.29323e-06 0)
(0.000906716 2.17792e-06 0)
(0.000906743 3.09677e-06 0)
(0.000906779 4.0642e-06 0)
(0.000906825 5.09541e-06 0)
(0.000906881 6.20657e-06 0)
(0.000906948 7.41516e-06 0)
(0.000907027 8.74015e-06 0)
(0.000907117 1.02024e-05 0)
(0.00090722 1.18249e-05 0)
(0.000907337 1.36332e-05 0)
(0.000907467 1.56558e-05 0)
(0.000907612 1.79245e-05 0)
(0.000907772 2.04752e-05 0)
(0.000907946 2.33481e-05 0)
(0.000908134 2.65887e-05 0)
(0.000908334 3.02481e-05 0)
(0.000908544 3.43842e-05 0)
(0.000908761 3.90624e-05 0)
(0.000908979 4.43569e-05 0)
(0.000909189 5.03514e-05 0)
(0.00090938 5.71407e-05 0)
(0.000909537 6.48321e-05 0)
(0.000909636 7.3547e-05 0)
(0.00090965 8.34222e-05 0)
(0.000909536 9.46129e-05 0)
(0.000909249 0.000107291 0)
(0.000908699 0.000121658 0)
(0.000907843 0.00013792 0)
(0.000906457 0.000156346 0)
(0.000904599 0.000177153 0)
(0.000901644 0.000200743 0)
(0.000898144 0.000227217 0)
(0.000892257 0.00025734 0)
(0.000886248 0.000290648 0)
(0.000874973 0.000328939 0)
(0.000865077 0.000369978 0)
(0.000844992 0.000417904 0)
(0.000825964 0.00046709 0)
(0.000800054 0.000521976 0)
(0.000756838 0.000583485 0)
(0.000713316 0.000647358 0)
(0.000656415 0.000713077 0)
(0.000588933 0.000778328 0)
(0.000507439 0.000840806 0)
(0.000412797 0.000897352 0)
(0.000305522 0.000944291 0)
(0.00018795 0.000978048 0)
(6.34529e-05 0.000995744 0)
(0.000907528 4.21265e-07 0)
(0.00090755 1.27042e-06 0)
(0.000907594 2.13957e-06 0)
(0.000907662 3.04239e-06 0)
(0.000907753 3.9931e-06 0)
(0.000907869 5.00668e-06 0)
(0.000908012 6.09912e-06 0)
(0.000908183 7.28768e-06 0)
(0.000908386 8.59115e-06 0)
(0.000908621 1.00302e-05 0)
(0.000908894 1.16276e-05 0)
(0.000909206 1.34088e-05 0)
(0.000909562 1.54021e-05 0)
(0.000909965 1.76393e-05 0)
(0.00091042 2.01563e-05 0)
(0.000910932 2.29935e-05 0)
(0.000911506 2.61963e-05 0)
(0.000912146 2.98167e-05 0)
(0.000912857 3.3913e-05 0)
(0.000913644 3.8552e-05 0)
(0.00091451 4.38093e-05 0)
(0.000915458 4.97708e-05 0)
(0.000916488 5.65347e-05 0)
(0.000917598 6.42124e-05 0)
(0.000918781 7.29312e-05 0)
(0.000920026 8.28358e-05 0)
(0.00092131 9.40919e-05 0)
(0.00092261 0.000106886 0)
(0.000923858 0.000121436 0)
(0.00092504 0.000137975 0)
(0.000925954 0.000156801 0)
(0.000926687 0.000178174 0)
(0.000926651 0.00020256 0)
(0.000926353 0.000230083 0)
(0.000924176 0.000261785 0)
(0.000921775 0.000296776 0)
(0.000915384 0.000338647 0)
(0.000908441 0.000381104 0)
(0.000895156 0.000440211 0)
(0.000875702 0.000482008 0)
(0.000857085 0.000566924 0)
(0.000826783 0.000630758 0)
(0.000783822 0.000699561 0)
(0.000728355 0.000775968 0)
(0.000658517 0.000854032 0)
(0.000572644 0.000931065 0)
(0.000469745 0.00100153 0)
(0.000350122 0.00106093 0)
(0.000216463 0.00110419 0)
(7.32752e-05 0.00112707 0)
(0.000908346 4.07291e-07 0)
(0.000908381 1.2283e-06 0)
(0.000908451 2.0687e-06 0)
(0.000908558 2.94174e-06 0)
(0.000908702 3.86125e-06 0)
(0.000908887 4.84175e-06 0)
(0.000909115 5.8988e-06 0)
(0.000909388 7.04917e-06 0)
(0.000909712 8.31116e-06 0)
(0.00091009 9.70491e-06 0)
(0.000910529 1.12527e-05 0)
(0.000911033 1.29793e-05 0)
(0.00091161 1.49126e-05 0)
(0.000912268 1.70838e-05 0)
(0.000913014 1.95281e-05 0)
(0.00091386 2.22853e-05 0)
(0.000914815 2.54005e-05 0)
(0.00091589 2.89251e-05 0)
(0.000917098 3.29174e-05 0)
(0.000918451 3.7444e-05 0)
(0.000919964 4.25808e-05 0)
(0.000921649 4.84147e-05 0)
(0.000923521 5.50452e-05 0)
(0.000925592 6.25863e-05 0)
(0.000927872 7.1169e-05 0)
(0.00093037 8.09436e-05 0)
(0.000933085 9.20832e-05 0)
(0.000936023 0.000104787 0)
(0.000939141 0.000119284 0)
(0.000942471 0.000135838 0)
(0.000945818 0.000154757 0)
(0.000949405 0.000176377 0)
(0.000952472 0.00020114 0)
(0.000956135 0.000229408 0)
(0.000957561 0.000261952 0)
(0.000961509 0.000298806 0)
(0.000957544 0.000342026 0)
(0.000964525 0.000389242 0)
(0.000943795 0.000448976 0)
(0.000969162 0.000504901 0)
(0.00096067 0.000561187 0)
(0.000864564 0.000544501 0)
(0.00084582 0.000629899 0)
(0.000805012 0.000722711 0)
(0.000744234 0.000820377 0)
(0.000662407 0.000919977 0)
(0.000558231 0.00101775 0)
(0.00043258 0.00110678 0)
(0.00028744 0.00117971 0)
(0.000127673 0.00122981 0)
(0.00090913 3.87108e-07 0)
(0.000909177 1.16745e-06 0)
(0.000909272 1.96627e-06 0)
(0.000909417 2.79621e-06 0)
(0.000909613 3.67045e-06 0)
(0.000909864 4.60286e-06 0)
(0.000910173 5.6083e-06 0)
(0.000910545 6.70279e-06 0)
(0.000910986 7.90386e-06 0)
(0.000911502 9.23078e-06 0)
(0.0009121 1.07049e-05 0)
(0.00091279 1.23502e-05 0)
(0.000913581 1.41933e-05 0)
(0.000914484 1.62643e-05 0)
(0.000915513 1.85974e-05 0)
(0.000916682 2.1231e-05 0)
(0.000918007 2.4209e-05 0)
(0.000919506 2.75814e-05 0)
(0.000921198 3.14052e-05 0)
(0.000923106 3.57458e-05 0)
(0.000925252 4.06781e-05 0)
(0.000927663 4.6288e-05 0)
(0.000930364 5.26747e-05 0)
(0.000933386 5.99525e-05 0)
(0.000936756 6.82533e-05 0)
(0.000940505 7.77303e-05 0)
(0.000944656 8.85605e-05 0)
(0.000949245 0.000100951 0)
(0.000954263 0.00011514 0)
(0.000959774 0.000131412 0)
(0.000965649 0.00015008 0)
(0.000972104 0.000171558 0)
(0.000978578 0.000196214 0)
(0.000985898 0.000224743 0)
(0.000992128 0.000257326 0)
(0.00100018 0.000295615 0)
(0.00100394 0.000338145 0)
(0.00101316 0.000390943 0)
(0.00100841 0.000442838 0)
(0.00102424 0.000522558 0)
(0.00106652 0.000569751 0)
(0.000945406 0.000613048 0)
(0.00093388 0.000708828 0)
(0.000899721 0.000814393 0)
(0.00084301 0.000927408 0)
(0.000761647 0.00104332 0)
(0.000649212 0.00116144 0)
(0.000509112 0.00126903 0)
(0.000341374 0.00135555 0)
(0.000151917 0.00141097 0)
(0.000909868 3.61005e-07 0)
(0.000909927 1.08874e-06 0)
(0.000910046 1.83376e-06 0)
(0.000910226 2.60789e-06 0)
(0.000910471 3.42344e-06 0)
(0.000910785 4.29342e-06 0)
(0.000911171 5.23173e-06 0)
(0.000911636 6.25342e-06 0)
(0.000912187 7.37492e-06 0)
(0.000912833 8.61436e-06 0)
(0.000913583 9.99184e-06 0)
(0.000914449 1.15298e-05 0)
(0.000915442 1.32536e-05 0)
(0.00091658 1.51916e-05 0)
(0.000917877 1.73761e-05 0)
(0.000919355 1.98436e-05 0)
(0.000921033 2.2636e-05 0)
(0.000922936 2.5801e-05 0)
(0.000925092 2.93932e-05 0)
(0.000927531 3.34753e-05 0)
(0.000930286 3.81196e-05 0)
(0.000933396 4.34096e-05 0)
(0.000936901 4.94418e-05 0)
(0.000940846 5.63282e-05 0)
(0.000945279 6.41991e-05 0)
(0.000950254 7.32065e-05 0)
(0.000955822 8.35277e-05 0)
(0.000962049 9.53728e-05 0)
(0.000968967 0.000108983 0)
(0.000976684 0.000124658 0)
(0.000985128 0.000142719 0)
(0.000994577 0.000163618 0)
(0.00100455 0.000187742 0)
(0.00101597 0.000215863 0)
(0.00102696 0.000248261 0)
(0.00104064 0.000286559 0)
(0.00105089 0.000330058 0)
(0.00106704 0.000383216 0)
(0.00107267 0.000440251 0)
(0.00108894 0.000517325 0)
(0.00115991 0.000570892 0)
(0.00103811 0.000651112 0)
(0.00103704 0.000757907 0)
(0.00101309 0.000879104 0)
(0.000964616 0.00101249 0)
(0.000891643 0.00114541 0)
(0.000766409 0.00130025 0)
(0.000611493 0.0014407 0)
(0.000415502 0.00155437 0)
(0.000185611 0.0016261 0)
(0.000910549 3.29366e-07 0)
(0.000910619 9.93337e-07 0)
(0.00091076 1.67311e-06 0)
(0.000910973 2.37951e-06 0)
(0.000911264 3.12381e-06 0)
(0.000911635 3.91792e-06 0)
(0.000912092 4.77457e-06 0)
(0.000912644 5.70756e-06 0)
(0.000913298 6.73197e-06 0)
(0.000914064 7.86445e-06 0)
(0.000914955 9.12351e-06 0)
(0.000915983 1.05298e-05 0)
(0.000917166 1.21067e-05 0)
(0.000918521 1.38805e-05 0)
(0.000920068 1.58809e-05 0)
(0.000921833 1.8142e-05 0)
(0.000923841 2.07026e-05 0)
(0.000926122 2.36072e-05 0)
(0.000928713 2.69068e-05 0)
(0.000931651 3.06604e-05 0)
(0.00093498 3.49359e-05 0)
(0.000938749 3.98123e-05 0)
(0.000943014 4.53812e-05 0)
(0.000947836 5.17497e-05 0)
(0.000953282 5.90427e-05 0)
(0.000959431 6.74075e-05 0)
(0.000966361 7.70165e-05 0)
(0.00097417 8.80765e-05 0)
(0.000982938 0.000100826 0)
(0.000992807 0.000115567 0)
(0.0010038 0.000132618 0)
(0.00101619 0.00015246 0)
(0.00102973 0.000175458 0)
(0.00104516 0.000202515 0)
(0.00106135 0.000233758 0)
(0.00108028 0.000271331 0)
(0.00109858 0.000313853 0)
(0.00112106 0.000367437 0)
(0.00113972 0.000424784 0)
(0.00116351 0.000503815 0)
(0.0012486 0.000559601 0)
(0.0011405 0.000663762 0)
(0.0011548 0.000781542 0)
(0.00114632 0.000920774 0)
(0.00110837 0.00108624 0)
(0.00106267 0.00130236 0)
(0.000932608 0.00149878 0)
(0.000747287 0.00168834 0)
(0.000498428 0.0018472 0)
(0.000194629 0.00194398 0)
(0.000911163 2.92666e-07 0)
(0.000911243 8.82664e-07 0)
(0.000911403 1.48673e-06 0)
(0.000911647 2.11452e-06 0)
(0.000911978 2.77607e-06 0)
(0.000912401 3.48199e-06 0)
(0.000912923 4.24365e-06 0)
(0.000913553 5.07335e-06 0)
(0.000914299 5.98458e-06 0)
(0.000915175 6.99222e-06 0)
(0.000916193 8.11283e-06 0)
(0.00091737 9.36497e-06 0)
(0.000918723 1.07695e-05 0)
(0.000920275 1.23501e-05 0)
(0.00092205 1.41336e-05 0)
(0.000924076 1.61507e-05 0)
(0.000926384 1.84365e-05 0)
(0.000929011 2.10311e-05 0)
(0.000931998 2.39812e-05 0)
(0.000935393 2.73402e-05 0)
(0.000939248 3.11704e-05 0)
(0.000943624 3.55441e-05 0)
(0.000948589 4.0546e-05 0)
(0.000954223 4.62749e-05 0)
(0.000960611 5.28474e-05 0)
(0.000967854 6.04012e-05 0)
(0.00097606 6.9099e-05 0)
(0.000985362 7.91374e-05 0)
(0.000995884 9.07448e-05 0)
(0.00100781 0.000104213 0)
(0.00102125 0.000119858 0)
(0.00103653 0.000138148 0)
(0.00105356 0.000159476 0)
(0.00107306 0.000184696 0)
(0.00109434 0.000214135 0)
(0.00111907 0.000249602 0)
(0.00114499 0.000290736 0)
(0.00117566 0.000341852 0)
(0.0012062 0.000399999 0)
(0.0012413 0.000475677 0)
(0.00133831 0.000531742 0)
(0.00125143 0.000652865 0)
(0.0012866 0.00077945 0)
(0.0013028 0.000933188 0)
(0.00129463 0.00111676 0)
(0.00128229 0.00138159 0)
(0.00116795 0.00164117 0)
(0.000970267 0.00191154 0)
(0.000671635 0.00215334 0)
(0.000275509 0.00230883 0)
(0.0009117 2.51455e-07 0)
(0.000911788 7.58381e-07 0)
(0.000911966 1.27742e-06 0)
(0.000912236 1.81688e-06 0)
(0.000912603 2.38541e-06 0)
(0.000913072 2.99215e-06 0)
(0.000913651 3.6469e-06 0)
(0.000914349 4.36028e-06 0)
(0.000915177 5.14393e-06 0)
(0.000916148 6.01069e-06 0)
(0.000917278 6.9749e-06 0)
(0.000918585 8.05261e-06 0)
(0.000920089 9.26192e-06 0)
(0.000921815 1.06234e-05 0)
(0.00092379 1.21603e-05 0)
(0.000926046 1.38993e-05 0)
(0.000928619 1.58711e-05 0)
(0.000931552 1.81108e-05 0)
(0.00093489 2.06591e-05 0)
(0.00093869 2.35632e-05 0)
(0.000943013 2.68777e-05 0)
(0.000947929 3.06666e-05 0)
(0.000953521 3.50049e-05 0)
(0.000959881 3.99808e-05 0)
(0.000967114 4.56984e-05 0)
(0.000975344 5.22818e-05 0)
(0.000984706 5.98778e-05 0)
(0.000995365 6.86657e-05 0)
(0.00100749 7.88551e-05 0)
(0.00102131 9.0716e-05 0)
(0.00103702 0.000104544 0)
(0.00105498 0.000120778 0)
(0.00107531 0.000139803 0)
(0.00109868 0.000162428 0)
(0.00112491 0.000189024 0)
(0.00115528 0.000221302 0)
(0.00118891 0.000259174 0)
(0.00122805 0.000306554 0)
(0.00127076 0.000361797 0)
(0.00131958 0.000433359 0)
(0.00142567 0.000484502 0)
(0.00136783 0.000617713 0)
(0.00142921 0.000749268 0)
(0.00147856 0.000915099 0)
(0.00151054 0.00112366 0)
(0.0015508 0.00143124 0)
(0.00147854 0.00176961 0)
(0.00129089 0.00215596 0)
(0.000936984 0.00253975 0)
(0.000399113 0.00281049 0)
(0.000912152 2.06366e-07 0)
(0.000912247 6.22399e-07 0)
(0.000912439 1.04839e-06 0)