/*--------------------------------*- C++ -*----------------------------------*\
| =========                 |                                                 |
| \\      /  F ield         | foam-extend: Open Source CFD                    |
|  \\    /   O peration     | Version:     4.0                                |
|   \\  /    A nd           | Web:         http://www.foam-extend.org         |
|    \\/     M anipulation  |                                                 |
\*---------------------------------------------------------------------------*/
FoamFile
{
    version     2.0;
    format      ascii;
    class       volScalarField;
    location    "0.0018";
    object      k;
}
// * * * * * * * * * * * * * * * * * * * * * * * * * * * * * * * * * * * * * //

dimensions      [0 2 -2 0 0 0 0];

internalField   nonuniform List<scalar> 
28770
(
7.3692e-08
1.72178e-07
2.57732e-07
3.35773e-07
4.06654e-07
4.72122e-07
5.32265e-07
5.87324e-07
6.37393e-07
6.82511e-07
7.22698e-07
7.5796e-07
7.88298e-07
8.13712e-07
8.34209e-07
8.498e-07
8.60505e-07
8.66356e-07
8.674e-07
8.63701e-07
8.55341e-07
8.4242e-07
8.25084e-07
8.03494e-07
7.77855e-07
7.48405e-07
7.15424e-07
6.79233e-07
6.40198e-07
5.98725e-07
5.55261e-07
5.10291e-07
4.64332e-07
4.17927e-07
3.71639e-07
3.2604e-07
2.81703e-07
2.39189e-07
1.99039e-07
1.61757e-07
1.27799e-07
9.75557e-08
7.13369e-08
4.93499e-08
3.16829e-08
1.82868e-08
8.95592e-09
3.29904e-09
6.77342e-10
4.56656e-11
2.14316e-06
5.14033e-06
7.6802e-06
9.99833e-06
1.21068e-05
1.4053e-05
1.58415e-05
1.74789e-05
1.89679e-05
2.03096e-05
2.15047e-05
2.25533e-05
2.34553e-05
2.4211e-05
2.48203e-05
2.52836e-05
2.56016e-05
2.57752e-05
2.58058e-05
2.56953e-05
2.54461e-05
2.50611e-05
2.45449e-05
2.39021e-05
2.31388e-05
2.22621e-05
2.12804e-05
2.02033e-05
1.90415e-05
1.78072e-05
1.65137e-05
1.51755e-05
1.38078e-05
1.24269e-05
1.10496e-05
9.69278e-06
8.37358e-06
7.10869e-06
5.91418e-06
4.80508e-06
3.79494e-06
2.89542e-06
2.11571e-06
1.46199e-06
9.36904e-07
5.38989e-07
2.62147e-07
9.47856e-08
1.80396e-08
7.03301e-10
1.41658e-05
3.55772e-05
5.32028e-05
6.9138e-05
8.36539e-05
9.70396e-05
0.000109348
0.000120617
0.000130866
0.000140101
0.000148326
0.000155542
0.000161748
0.000166945
0.000171134
0.000174316
0.000176497
0.000177682
0.000177882
0.000177108
0.000175379
0.000172714
0.000169143
0.000164701
0.000159428
0.000153373
0.000146594
0.000139158
0.000131138
0.000122619
0.000113692
0.000104457
9.50207e-05
8.54937e-05
7.5992e-05
6.66332e-05
5.75347e-05
4.88121e-05
4.05763e-05
3.29308e-05
2.59697e-05
1.97733e-05
1.44053e-05
9.90878e-06
6.30232e-06
3.57678e-06
1.69254e-06
5.75552e-07
9.66084e-08
3.43133e-09
4.70572e-05
0.000124278
0.000187587
0.00024386
0.000294886
0.000341813
0.000384947
0.000424439
0.000460352
0.000492713
0.00052153
0.000546805
0.000568538
0.000586726
0.000601374
0.000612488
0.000620084
0.000624183
0.000624818
0.000622037
0.000615896
0.00060647
0.000593862
0.000578189
0.000559598
0.000538261
0.000514381
0.000488189
0.00045995
0.000429957
0.000398534
0.00036603
0.000332821
0.000299298
0.00026587
0.000232949
0.000200951
0.00017028
0.00014133
0.000114464
9.00157e-05
6.82701e-05
4.9455e-05
3.37272e-05
2.11613e-05
1.17408e-05
5.34653e-06
1.71122e-06
2.6877e-07
9.30967e-09
0.000111154
0.000304914
0.000466527
0.000608596
0.000736395
0.000853301
0.000960517
0.00105858
0.00114772
0.00122801
0.00129949
0.00136216
0.00141602
0.00146107
0.0014973
0.00152475
0.00154344
0.00155344
0.00155481
0.00154768
0.00153218
0.00150851
0.00147691
0.00143769
0.0013912
0.00133787
0.00127821
0.0012128
0.00114229
0.00106741
0.000988983
0.00090787
0.000825008
0.000741379
0.000658
0.000575904
0.000496127
0.000419685
0.000347559
0.000280667
0.000219847
0.000165827
0.000119198
8.03827e-05
4.96073e-05
2.68642e-05
1.18266e-05
3.63605e-06
5.53703e-07
1.89901e-08
0.000215807
0.00060721
0.000941735
0.00123529
0.00149764
0.00173609
0.00195392
0.0021527
0.00233315
0.00249557
0.00264007
0.00276668
0.00287542
0.00296628
0.00303927
0.00309444
0.00313184
0.0031516
0.00315387
0.00313888
0.00310692
0.00305837
0.00299373
0.00291361
0.00281874
0.00270998
0.00258837
0.00245508
0.00231144
0.00215894
0.00199924
0.00183411
0.00166545
0.00149526
0.00132562
0.00115864
0.000996428
0.000841075
0.000694586
0.00055886
0.000435636
0.000326452
0.000232578
0.00015495
9.40743e-05
4.98777e-05
2.14136e-05
6.42425e-06
9.63046e-07
3.28662e-08
0.000368968
0.00105557
0.00165644
0.00218635
0.00265853
0.0030853
0.00347338
0.00382639
0.00414615
0.00443353
0.00468892
0.00491249
0.00510429
0.00526437
0.00539276
0.00548953
0.00555481
0.00558879
0.00559176
0.00556411
0.00550636
0.00541917
0.00530344
0.00516022
0.00499082
0.00479678
0.00457991
0.00434231
0.00408635
0.00381469
0.00353024
0.0032362
0.00293594
0.00263305
0.00233123
0.00203425
0.00174592
0.00146997
0.00121003
0.000969548
0.000751706
0.00055936
0.000394893
0.000260035
0.000155606
8.11286e-05
3.42243e-05
1.01137e-05
1.50255e-06
5.11277e-08
0.000576696
0.00166823
0.00264299
0.00350981
0.00428265
0.00497863
0.00560883
0.00618
0.00669594
0.00715867
0.00756922
0.00792812
0.00823562
0.00849187
0.00869696
0.00885107
0.00895439
0.00900727
0.00901014
0.00896364
0.0088686
0.00872609
0.00853753
0.00830463
0.00802948
0.00771458
0.00736283
0.00697763
0.00656281
0.00612268
0.00566197
0.00518584
0.00469981
0.00420969
0.00372152
0.00324147
0.00277575
0.0023305
0.00191169
0.00152502
0.00117581
0.000868843
0.000608086
0.000396262
0.000234281
0.000120598
5.02606e-05
1.47095e-05
2.1728e-06
7.37775e-08
0.000842852
0.00245665
0.00392184
0.00523708
0.00641333
0.00747096
0.00842556
0.00928777
0.0100642
0.0107589
0.0113739
0.0119106
0.0123697
0.0127515
0.0130564
0.0132846
0.0134366
0.0135128
0.013514
0.0134411
0.0132952
0.0130781
0.0127919
0.012439
0.0120227
0.0115466
0.0110152
0.0104335
0.00980739
0.00914328
0.00844835
0.00773043
0.00699786
0.0062595
0.00552452
0.00480236
0.0041025
0.00343434
0.00280707
0.00222944
0.00170964
0.00125499
0.000871485
0.000562857
0.000329532
0.000168001
6.94236e-05
2.01875e-05
2.97052e-06
1.00694e-07
0.00116895
0.00342522
0.00550103
0.00738161
0.00907105
0.0105905
0.0119593
0.013192
0.0142989
0.0152865
0.0161589
0.0169185
0.0175669
0.018105
0.0185335
0.018853
0.0190641
0.0191676
0.0191645
0.0190562
0.0188443
0.0185313
0.01812
0.0176142
0.0170181
0.0163372
0.0155777
0.0147468
0.0138528
0.012905
0.0119136
0.0108898
0.00984569
0.008794
0.00774799
0.0067213
0.00572768
0.00478079
0.00389391
0.00307968
0.00234977
0.00171457
0.00118242
0.000758044
0.000440335
0.000222837
9.15201e-05
2.6496e-05
3.88904e-06
1.3171e-07
0.00155398
0.00457059
0.00737536
0.0099378
0.0122517
0.0143362
0.0162122
0.0178984
0.0194086
0.0207524
0.0219366
0.0229652
0.0238412
0.0245664
0.0251421
0.0255694
0.0258493
0.0259831
0.0259722
0.0258184
0.025524
0.0250924
0.0245274
0.0238339
0.023018
0.0220869
0.0210491
0.0199144
0.0186941
0.017401
0.0160492
0.0146539
0.0132319
0.0118007
0.0103787
0.00898477
0.00763801
0.00635734
0.00516106
0.00406634
0.00308874
0.0022418
0.00153658
0.000979176
0.000565349
0.00028452
0.000116324
3.35659e-05
4.91641e-06
1.66376e-07
0.00199446
0.00588184
0.00952678
0.0128818
0.0159275
0.0186776
0.0211532
0.0233753
0.0253614
0.0271245
0.0286743
0.0300173
0.0311581
0.0321
0.0328452
0.0333957
0.0337531
0.0339191
0.0338957
0.0336855
0.0332916
0.0327181
0.0319703
0.0310545
0.0299786
0.028752
0.027386
0.0258934
0.0242893
0.0225903
0.0208151
0.0189842
0.0171197
0.0152448
0.0133843
0.0115632
0.00980721
0.0081415
0.00659022
0.00517552
0.00391665
0.00282964
0.00192837
0.00122268
0.000702983
0.000352618
0.000143795
4.1407e-05
6.05164e-06
2.04181e-07
0.00248458
0.0073408
0.0119251
0.0161723
0.0200473
0.0235562
0.0267177
0.0295537
0.0320845
0.0343267
0.0362931
0.037993
0.0394334
0.0406191
0.0415541
0.0422412
0.0426829
0.0428819
0.0428408
0.0425629
0.0420523
0.0413143
0.0403555
0.0391841
0.0378098
0.0362449
0.0345034
0.032602
0.0305597
0.028398
0.026141
0.0238148
0.0214479
0.0190706
0.0167146
0.0144126
0.0121976
0.0101022
0.00815722
0.00639011
0.00482291
0.00347155
0.00235198
0.00148403
0.000851037
0.000426721
0.000174147
5.02054e-05
7.34599e-06
2.48284e-07
0.00301625
0.00892225
0.0145282
0.0197508
0.024538
0.0288862
0.032809
0.0363278
0.0394648
0.0422394
0.0446677
0.0467622
0.0485324
0.0499856
0.0511273
0.0519619
0.0524932
0.0527246
0.0526599
0.0523034
0.0516601
0.0507366
0.0495411
0.0480837
0.0463766
0.0444348
0.0422758
0.0399203
0.0373919
0.0347177
0.0319275
0.0290543
0.0261337
0.0232037
0.0203041
0.0174761
0.0147613
0.0122006
0.00983271
0.00769085
0.00579824
0.00416351
0.00280421
0.00176071
0.00100851
0.000506959
0.000207691
6.00626e-05
8.7812e-06
2.95019e-07
0.00357948
0.0105951
0.0172841
0.0235449
0.0293082
0.0345589
0.0393034
0.043561
0.0473543
0.0507052
0.0536327
0.0561525
0.0582771
0.0600163
0.0613779
0.0623679
0.0629918
0.0632542
0.06316
0.0627146
0.0619243
0.0607972
0.0593432
0.0575744
0.0555057
0.0531551
0.050544
0.0476973
0.0446441
0.0414171
0.0380528
0.0345916
0.0310769
0.0275553
0.0240754
0.0206876
0.0174428
0.0143918
0.0115828
0.00905756
0.00683865
0.00489738
0.00327894
0.00205466
0.00118237
0.000600197
0.000248688
7.27902e-05
1.07042e-05
3.42768e-07
0.00416267
0.0123233
0.0201324
0.0274705
0.0342517
0.0404466
0.0460543
0.0510899
0.0555754
0.059534
0.0629874
0.0659542
0.0684503
0.0704881
0.0720779
0.0732279
0.0739453
0.0742362
0.0741068
0.073564
0.0726154
0.0712706
0.0695415
0.0674423
0.0649908
0.0622083
0.0591201
0.055756
0.0521505
0.0483428
0.0443763
0.0402994
0.036164
0.0320255
0.027942
0.0239732
0.02018
0.016624
0.0133661
0.0104675
0.00886156
0.00598014
0.00402484
0.00255927
0.00152354
0.00081342
0.000363775
0.000121123
2.31759e-05
1.0055e-06
0.00475286
0.0140669
0.0230063
0.0314351
0.0392488
0.0464058
0.0528969
0.0587302
0.0639263
0.0685092
0.0725024
0.0759276
0.0788033
0.0811453
0.0829663
0.0842771
0.0850866
0.0854028
0.0852336
0.0845871
0.0834724
0.0819011
0.0798868
0.0774462
0.0745999
0.0713727
0.0677941
0.063899
0.0597276
0.0553255
0.0507439
0.0460391
0.0412719
0.0365068
0.0318114
0.0272547
0.0229069
0.0188391
0.0151227
0.0118184
0.00988538
0.00669002
0.00444123
0.00282253
0.00169818
0.000918676
0.000414032
0.00013877
2.64513e-05
1.05339e-06
0.00533621
0.0157836
0.0258352
0.0353393
0.0441739
0.0522863
0.0596559
0.0662851
0.0721911
0.077398
0.0819308
0.0858134
0.0890673
0.0917113
0.0937608
0.095229
0.0961272
0.0964652
0.0962525
0.0954988
0.094215
0.0924143
0.0901123
0.0873283
0.0840857
0.0804129
0.0763437
0.071918
0.0671819
0.0621878
0.0569945
0.0516663
0.0462731
0.0408886
0.0355894
0.0304536
0.025559
0.0209835
0.016806
0.0130873
0.0108476
0.00732104
0.00483494
0.0030842
0.00187285
0.00101801
0.00045869
0.000155332
3.00982e-05
1.21841e-06
0.00589834
0.0174303
0.0285471
0.039083
0.0489005
0.0579333
0.0661514
0.0735522
0.0801474
0.0859602
0.0910168
0.0953432
0.0989634
0.101899
0.104168
0.105786
0.106768
0.107124
0.106865
0.106004
0.104553
0.102527
0.0999431
0.0968235
0.0931944
0.0890878
0.0845416
0.0796008
0.0743173
0.0687502
0.0629655
0.0570361
0.0510401
0.0450603
0.0391824
0.033493
0.0280778
0.0230203
0.0184058
0.0143056
0.0118142
0.00798155
0.00527844
0.00338433
0.00206528
0.00103319
0.000449591
0.00015167
2.7621e-05
8.38222e-07
0.0064247
0.0189644
0.0310716
0.0425679
0.0533024
0.0631941
0.0722077
0.0803321
0.0875749
0.0939575
0.0995066
0.10425
0.108214
0.111422
0.113896
0.115653
0.11671
0.117079
0.116775
0.115811
0.114199
0.111958
0.109107
0.10567
0.101676
0.0971597
0.0921644
0.0867392
0.0809416
0.074837
0.0684988
0.0620072
0.0554489
0.0489148
0.0424993
0.0362971
0.0304017
0.0249031
0.0198932
0.0154563
0.0127396
0.00866525
0.00575061
0.00370292
0.00226256
0.00112854
0.000502478
0.000171797
3.17916e-05
1.03036e-06
0.00690111
0.0203453
0.0333416
0.0457009
0.0572602
0.0679274
0.0776571
0.0864344
0.0942644
0.101163
0.107158
0.112279
0.116553
0.120007
0.122664
0.124545
0.125668
0.126048
0.1257
0.124638
0.122879
0.120441
0.117345
0.113618
0.109292
0.104404
0.099001
0.0931367
0.0868737
0.0802835
0.0734457
0.0664477
0.0593836
0.0523523
0.0454554
0.0387954
0.0324728
0.0265842
0.0212271
0.0164947
0.0135628
0.00930356
0.00618975
0.00399411
0.0024439
0.00122014
0.000546982
0.000186625
3.53058e-05
1.16959e-06
0.00731417
0.0215361
0.0352964
0.0483974
0.0606666
0.0720022
0.0823487
0.0916897
0.100026
0.107371
0.113752
0.119198
0.123739
0.127405
0.130219
0.132205
0.133382
0.133768
0.133379
0.132232
0.130342
0.127732
0.124422
0.120443
0.115827
0.110617
0.10486
0.0986156
0.0919504
0.0849408
0.0776723
0.0702386
0.06274
0.0552823
0.0479738
0.0409232
0.0342372
0.0280181
0.0223675
0.0173829
0.0142521
0.00984808
0.00655862
0.00423767
0.00259876
0.00130232
0.000589171
0.000204604
3.98811e-05
1.29434e-06
0.00765189
0.0225045
0.0368836
0.0505848
0.0634286
0.0753059
0.0861541
0.0959491
0.104694
0.112402
0.119096
0.124805
0.129563
0.133398
0.136338
0.138407
0.139626
0.140015
0.13959
0.13837
0.136373
0.133619
0.130134
0.125948
0.121096
0.115622
0.109577
0.103023
0.096031
0.0886813
0.0810639
0.0732778
0.0654286
0.0576275
0.0499882
0.0426246
0.0356481
0.0291654
0.0232815
0.0180969
0.0147986
0.0102913
0.00685829
0.00443665
0.00272895
0.00137893
0.000629185
0.000222678
4.01333e-05
2.4193e-06
0.00790427
0.0232247
0.0380618
0.0522059
0.0654732
0.0777495
0.0889672
0.0990973
0.10814
0.116113
0.123037
0.12894
0.133855
0.137813
0.140843
0.142971
0.144219
0.144606
0.144153
0.142876
0.140796
0.137935
0.134318
0.129977
0.124949
0.119278
0.11302
0.106237
0.0990034
0.0914028
0.0835288
0.0754839
0.0673779
0.0593258
0.0514455
0.0438544
0.0366676
0.0299947
0.0239435
0.0186175
0.0151911
0.0106345
0.00709451
0.00459402
0.00283389
0.00144123
0.000667802
0.000242769
4.63795e-05
3.03058e-06
0.00806562
0.0236845
0.0388139
0.0532394
0.0667746
0.0793023
0.0907524
0.101093
0.110321
0.118456
0.125522
0.131545
0.136557
0.14059
0.143673
0.145835
0.147097
0.147481
0.147006
0.145691
0.143557
0.140625
0.136923
0.132482
0.127341
0.121545
0.115151
0.108224
0.100838
0.0930797
0.0850449
0.0768383
0.0685723
0.0603645
0.0523351
0.044604
0.0372884
0.0305
0.0243482
0.0189391
0.0154173
0.0108692
0.00726107
0.0047047
0.00290635
0.00148345
0.00069862
0.000265029
7.467e-05
7.27342e-06
0.00812759
0.023861
0.039102
0.0536327
0.0672661
0.0798842
0.0914163
0.10183
0.11112
0.119308
0.12642
0.132481
0.137522
0.141576
0.144674
0.146842
0.148104
0.148482
0.147994
0.146661
0.144502
0.141542
0.137805
0.133325
0.128141
0.122299
0.115855
0.108875
0.101435
0.093621
0.0855301
0.0772678
0.0689474
0.0606874
0.0526086
0.0448319
0.0374752
0.0306507
0.0244686
0.0190353
0.0154518
0.0109723
0.00733637
0.00475405
0.00293861
0.00150367
0.000712654
0.000277852
8.50027e-05
1.34973e-05
0.00809039
0.0237541
0.0389242
0.0533819
0.0669415
0.0794866
0.0909479
0.101294
0.110522
0.118654
0.125714
0.131729
0.136731
0.140753
0.143824
0.145971
0.147219
0.147587
0.147096
0.145765
0.143614
0.140667
0.136948
0.132492
0.127336
0.121526
0.11512
0.108181
0.100785
0.0930183
0.0849771
0.0767662
0.068498
0.0602899
0.0522622
0.0445348
0.0372248
0.0304438
0.0243013
0.0189031
0.0152911
0.0109252
0.00730328
0.00473122
0.00292244
0.0014889
0.000701777
0.000268958
7.63032e-05
8.27698e-06
0.00795405
0.0233639
0.0382797
0.0524852
0.0657987
0.0781072
0.0893454
0.0994848
0.108527
0.116491
0.123403
0.12929
0.134185
0.138121
0.141125
0.143225
0.144444
0.144801
0.144316
0.143008
0.140896
0.138003
0.134355
0.129983
0.124926
0.119228
0.112945
0.10614
0.0988877
0.0912715
0.0833856
0.0753328
0.0672229
0.059171
0.0512948
0.0437116
0.0365363
0.0298785
0.0238458
0.0185426
0.0149488
0.0107333
0.00716758
0.00463956
0.00286055
0.00144514
0.000671572
0.000247074
6.19286e-05
3.17673e-06
0.00772635
0.0227109
0.0372036
0.0509915
0.0638999
0.0758215
0.0866964
0.0965022
0.105244
0.11294
0.119615
0.1253
0.130028
0.133828
0.13673
0.138758
0.139935
0.140279
0.139808
0.138542
0.136498
0.133699
0.130169
0.125938
0.121045
0.115531
0.109451
0.102866
0.0958465
0.0884748
0.0808409
0.073044
0.0651901
0.05739
0.0497576
0.0424064
0.0354476
0.0289875
0.0231314
0.0179824
0.0144498
0.0104241
0.00695381
0.00449561
0.0027636
0.00138241
0.000633774
0.000225856
5.33809e-05
2.45642e-06
0.00740853
0.021798
0.0357015
0.0489107
0.0612598
0.0726496
0.0830272
0.0923793
0.100711
0.108041
0.114397
0.11981
0.124311
0.127932
0.130697
0.13263
0.133752
0.134082
0.133635
0.132428
0.13048
0.127811
0.124445
0.12041
0.115742
0.110482
0.104681
0.0983975
0.0916986
0.0846619
0.0773733
0.0699267
0.062423
0.0549675
0.0476686
0.0406347
0.0339722
0.0277832
0.0221692
0.0172321
0.0138041
0.0100134
0.00667632
0.00431015
0.00264037
0.00130732
0.000593044
0.000207142
4.08301e-05
1.36781e-06
0.00701232
0.0206541
0.0338186
0.046304
0.0579558
0.0686845
0.0784483
0.0872371
0.0950614
0.101941
0.107905
0.112986
0.117212
0.120612
0.123211
0.12503
0.126088
0.1264
0.125984
0.124853
0.123025
0.120518
0.117356
0.113564
0.109176
0.104232
0.0987765
0.0928661
0.0865641
0.0799423
0.0730812
0.0660687
0.0589988
0.0519705
0.0450853
0.0384453
0.0321511
0.0262996
0.0209875
0.0163142
0.0130279
0.00950694
0.00633569
0.00408447
0.00249469
0.00122439
0.000550552
0.000188655
3.51165e-05
1.13864e-06
0.00654887
0.0193096
0.0316045
0.0432407
0.0540767
0.0640346
0.0730843
0.0812205
0.0884563
0.0948161
0.10033
0.105027
0.108937
0.112084
0.114492
0.11618
0.117164
0.117459
0.117079
0.116037
0.114349
0.112032
0.109107
0.105598
0.101536
0.0969563
0.0919032
0.0864269
0.0805858
0.0744463
0.0680822
0.0615745
0.0550096
0.048479
0.0420763
0.0358964
0.0300328
0.0245763
0.0196171
0.0152488
0.0121252
0.00890172
0.00592543
0.00381358
0.00232462
0.00113486
0.000506571
0.000174037
3.17504e-05
9.90321e-07
0.00603144
0.0178009
0.029119
0.0398036
0.049728
0.0588295
0.0670845
0.0744969
0.0810831
0.0868701
0.0918874
0.0961637
0.0997256
0.102596
0.104795
0.106339
0.107243
0.107519
0.107179
0.106236
0.104704
0.102596
0.0999334
0.0967375
0.0930359
0.0888617
0.084254
0.0792587
0.0739288
0.0683242
0.0625119
0.0565649
0.0505617
0.044585
0.0387203
0.0330541
0.0276726
0.0226593
0.0180975
0.0140724
0.0111562
0.00822132
0.00545529
0.00350029
0.0021324
0.00103974
0.000454129
0.000154389
2.83195e-05
8.44528e-07
0.00547418
0.0161682
0.0264282
0.036085
0.0450282
0.0532097
0.0606157
0.0672552
0.0731504
0.0783292
0.0828204
0.0866507
0.089844
0.0924207
0.0943977
0.0957893
0.0966078
0.0968639
0.0965677
0.0957298
0.094362
0.0924782
0.0900949
0.0872325
0.0839154
0.0801731
0.0760406
0.0715587
0.0667747
0.0617419
0.0565196
0.051173
0.0457719
0.0403899
0.0351037
0.0299909
0.0251297
0.0205971
0.0164698
0.0128274
0.0101656
0.00752307
0.00497825
0.00317781
0.00193144
0.00104851
0.000470367
0.000161021
3.18246e-05
1.31763e-06
0.00489173
0.0144543
0.023603
0.0321837
0.0401043
0.0473282
0.0538539
0.0596957
0.0648792
0.0694327
0.0733834
0.0767558
0.0795706
0.0818453
0.0835939
0.0848284
0.0855586
0.0857934
0.0855411
0.0848109
0.0836128
0.0819588
0.0798637
0.0773451
0.0744247
0.0711282
0.0674864
0.0635351
0.0593156
0.0548746
0.0502638
0.04554
0.0407643
0.0360011
0.0313177
0.0267828
0.0224664
0.0184386
0.0147727
0.0115505
0.00919103
0.00687134
0.00454964
0.00289179
0.00174629
0.000947856
0.000428094
0.00014387
2.75134e-05
1.09753e-06
0.0042987
0.0127028
0.0207162
0.0282009
0.0350839
0.0413418
0.046981
0.0520227
0.0564942
0.0604231
0.0638344
0.0667496
0.0691864
0.0711589
0.0726787
0.0737551
0.074396
0.0746083
0.0743989
0.0737754
0.0727462
0.0713218
0.0695147
0.0673403
0.0648171
0.0619675
0.058818
0.0553995
0.0517473
0.0479014
0.0439062
0.0398104
0.035666
0.0315287
0.027456
0.0235075
0.0197443
0.0162287
0.0130285
0.0102271
0.00809327
0.006212
0.00415378
0.00263551
0.00157811
0.000848922
0.000381332
0.000127211
2.40962e-05
9.69659e-07
0.0037093
0.0109571
0.0178398
0.0242378
0.0300953
0.0354031
0.040175
0.0444363
0.0482148
0.0515366
0.0544237
0.0568945
0.0589632
0.060641
0.061937
0.062858
0.0634103
0.0635991
0.06343
0.0629091
0.0620434
0.0608418
0.0593147
0.0574753
0.0553394
0.0529258
0.050257
0.047359
0.0442616
0.0409983
0.0376065
0.0341269
0.0306033
0.0270821
0.0236119
0.0202429
0.0170266
0.0140152
0.0112656
0.00884532
0.00669822
0.00478163
0.00320239
0.00200662
0.00115884
0.000589663
0.000244075
7.15659e-05
1.04917e-05
3.35234e-07
0.00313693
0.00925824
0.0150428
0.02039
0.0252614
0.0296595
0.0336049
0.0371252
0.0402472
0.0429941
0.045385
0.0474344
0.0491535
0.0505508
0.0516328
0.0524047
0.0528709
0.0530356
0.0529029
0.0524778
0.051766
0.0507747
0.0495129
0.0479912
0.0462229
0.0442236
0.0420119
0.0396093
0.0370403
0.0343327
0.0315169
0.0286264
0.025697
0.0227669
0.0198759
0.017065
0.0143759
0.011849
0.00952502
0.00745974
0.00564488
0.00405085
0.00273492
0.00172256
0.000990214
0.000498348
0.00020432
5.90616e-05
8.63053e-06
2.90511e-07
0.00259376
0.00764405
0.012388
0.0167447
0.0206924
0.0242433
0.0274226
0.0302581
0.0327744
0.0349912
0.0369239
0.0385836
0.0399787
0.0411152
0.0419975
0.0426294
0.043014
0.0431542
0.0430533
0.042715
0.0421441
0.0413464
0.0403291
0.0391009
0.0376726
0.0360569
0.0342687
0.0323255
0.030247
0.0280554
0.0257753
0.0234333
0.0210582
0.0186804
0.0163317
0.014045
0.0118541
0.00979057
0.00788138
0.00616573
0.00465687
0.0033542
0.00227818
0.00143954
0.000826991
0.000414913
0.000169327
4.87564e-05
7.11689e-06
2.3997e-07
0.00209037
0.00614737
0.00993044
0.0133783
0.0164844
0.0192682
0.0217572
0.0239774
0.0259498
0.0276905
0.0292111
0.0305196
0.0316217
0.0325215
0.033222
0.0337255
0.0340342
0.0341502
0.034076
0.0338144
0.0333691
0.0327447
0.031947
0.0309828
0.0298607
0.0285907
0.0271846
0.0256562
0.0240208
0.0222959
0.0205006
0.0186558
0.0167837
0.014908
0.0130532
0.0112447
0.009509
0.00787169
0.00635259
0.00497694
0.00376225
0.00271745
0.00185329
0.00117496
0.000676064
0.000339245
0.000138324
3.97883e-05
5.80545e-06
1.95748e-07
0.00163556
0.00479543
0.00771542
0.0103534
0.0127154
0.0148258
0.0167112
0.0183945
0.0198926
0.0212175
0.0223773
0.0233774
0.0242215
0.0249121
0.0254511
0.0258399
0.02608
0.0261728
0.0261201
0.0259241
0.0255876
0.0251142
0.0245081
0.0237749
0.0229209
0.021954
0.020883
0.0197186
0.0184724
0.0171576
0.0157889
0.0143818
0.0129533
0.011521
0.0101035
0.00871958
0.00738869
0.00613075
0.00496159
0.00389797
0.00295447
0.0021413
0.0014664
0.000933407
0.000538796
0.000270975
0.000110636
3.18456e-05
4.64772e-06
1.56709e-07
0.00123583
0.00360844
0.00577639
0.00771568
0.00944153
0.0109799
0.0123547
0.0135842
0.014681
0.0156532
0.0165062
0.0172433
0.0178665
0.0183775
0.0187771
0.0190663
0.0192461
0.0193174
0.0192814
0.0191399
0.0188949
0.0185489
0.0181053
0.017568
0.0169419
0.0162326
0.0154469
0.0145923
0.0136776
0.0127124
0.0117074
0.0106739
0.00962433
0.00857152
0.00752887
0.00650992
0.00552841
0.00459862
0.0037328
0.00294261
0.00223869
0.00162953
0.0011214
0.000717439
0.000416104
0.000210119
8.6053e-05
2.48179e-05
3.62507e-06
1.22233e-07
0.000895337
0.00259932
0.00413459
0.00549298
0.00669526
0.00776583
0.00872406
0.0095832
0.0103516
0.0110345
0.0116349
0.0121547
0.0125949
0.0129563
0.0132396
0.0134452
0.0135738
0.0136259
0.0136025
0.0135047
0.0133339
0.0130921
0.0127816
0.0124051
0.0119661
0.0114687
0.0109174
0.0103179
0.009676
0.00899865
0.00829322
0.00756775
0.00683078
0.00609128
0.00535857
0.00464205
0.00395105
0.0032952
0.00268326
0.00212325
0.00162248
0.0011871
0.000821771
0.00052913
0.000308886
0.000156917
6.45807e-05
1.8687e-05
2.73359e-06
9.21868e-08
0.000615767
0.00177333
0.0027982
0.00369465
0.0044849
0.00518914
0.00582129
0.0063899
0.00689994
0.00735424
0.00775439
0.00810129
0.00839551
0.00863741
0.00882729
0.00896544
0.00905225
0.00908812
0.00907364
0.00900959
0.00889694
0.00873695
0.0085312
0.00828157
0.00799035
0.00766025
0.0072944
0.0068964
0.00647032
0.00602065
0.00555232
0.00507065
0.00458128
0.00409013
0.00360331
0.00312704
0.0026674
0.00223052
0.00182218
0.00144762
0.00111157
0.00081807
0.000570265
0.000370117
0.000217916
0.000111643
4.62868e-05
1.34631e-05
1.97418e-06
6.65974e-08
0.000396167
0.00112771
0.00176169
0.00231027
0.00279318
0.00322483
0.00361385
0.00396497
0.00428076
0.00456257
0.00481113
0.00502686
0.00520998
0.00536069
0.00547913
0.00556548
0.00561996
0.00564282
0.00563443
0.00559527
0.00552597
0.00542731
0.00530028
0.00514605
0.00496606
0.00476199
0.00453579
0.0042897
0.00402624
0.00374819
0.00345861
0.00316077
0.00285817
0.00255443
0.00225332
0.00195864
0.00167412
0.00140346
0.00115014
0.000917355
0.000707943
0.000524316
0.000368374
0.000241366
0.000143675
7.44709e-05
3.12141e-05
9.15359e-06
1.34755e-06
4.5486e-08
0.000233129
0.000652257
0.00100647
0.00131056
0.00157889
0.00181997
0.0020382
0.00223579
0.00241385
0.00257296
0.00271341
0.00283539
0.00293899
0.00302431
0.00309142
0.00314042
0.00317143
0.0031846
0.00318013
0.0031583
0.00311948
0.0030641
0.00299273
0.00290604
0.00280484
0.00269008
0.00256286
0.00242446
0.00227628
0.00211991
0.00195706
0.00178957
0.00161941
0.00144861
0.00127927
0.00111352
0.000953452
0.000801102
0.000658397
0.000527099
0.000408755
0.000304668
0.000215847
0.000142958
8.62475e-05
4.54116e-05
1.93455e-05
5.74938e-06
8.52194e-07
2.87975e-08
0.000120892
0.000329528
0.000501239
0.000648416
0.000779148
0.000897319
0.0010047
0.00110213
0.00119003
0.00126862
0.00133803
0.00139832
0.00144954
0.00149174
0.00152495
0.00154922
0.00156461
0.0015712
0.00156909
0.00155842
0.00153937
0.00151216
0.00147706
0.00143442
0.00138463
0.00132816
0.00126556
0.00119746
0.00112455
0.00104762
0.000967498
0.000885104
0.000801399
0.000717385
0.00063409
0.000552557
0.000473812
0.000398846
0.000328597
0.000263916
0.000205549
0.000154114
0.000110077
7.37294e-05
4.51692e-05
2.42651e-05
1.05856e-05
3.21793e-06
4.83228e-07
1.6367e-08
5.15843e-05
0.000135247
0.000202713
0.000260984
0.00031321
0.000360649
0.000403849
0.000443079
0.000478481
0.000510137
0.000538093
0.000562378
0.000583014
0.000600016
0.000613401
0.000623187
0.000629403
0.000632076
0.000631249
0.00062698
0.000619339
0.000608419
0.00059433
0.000577207
0.000557214
0.000534539
0.000509403
0.000482058
0.000452785
0.000421896
0.000389732
0.000356657
0.00032306
0.000289341
0.000255912
0.000223192
0.00019159
0.000161503
0.000133304
0.000107333
8.38832e-05
6.31981e-05
4.54559e-05
3.0762e-05
1.91398e-05
1.05222e-05
4.742e-06
1.49793e-06
2.31285e-07
7.88265e-09
1.56823e-05
3.90376e-05
5.78616e-05
7.4354e-05
8.92307e-05
0.000102768
0.000115099
0.000126295
0.000136397
0.000145429
0.000153404
0.000160332
0.000166218
0.000171067
0.000174885
0.000177676
0.00017945
0.000180213
0.000179979
0.000178763
0.000176586
0.000173475
0.000169461
0.000164583
0.000158887
0.000152428
0.000145268
0.00013748
0.000129143
0.000120346
0.000111187
0.00010177
9.22053e-05
8.26067e-05
7.30916e-05
6.37787e-05
5.47847e-05
4.62221e-05
3.81967e-05
3.08046e-05
2.41293e-05
1.82387e-05
1.31827e-05
8.98939e-06
5.66304e-06
3.18026e-06
1.48723e-06
4.98222e-07
8.19048e-08
2.84642e-09
2.40219e-06
5.69398e-06
8.41154e-06
1.08116e-05
1.29777e-05
1.49479e-05
1.67418e-05
1.83701e-05
1.9839e-05
2.1152e-05
2.23113e-05
2.33181e-05
2.41735e-05
2.48781e-05
2.54327e-05
2.58381e-05
2.60955e-05
2.6206e-05
2.61714e-05
2.59941e-05
2.56772e-05
2.52244e-05
2.46404e-05
2.39308e-05
2.31024e-05
2.2163e-05
2.11219e-05
1.99895e-05
1.87774e-05
1.74987e-05
1.61675e-05
1.47988e-05
1.34088e-05
1.2014e-05
1.06316e-05
9.27864e-06
7.97213e-06
6.72841e-06
5.56283e-06
4.48931e-06
3.51993e-06
2.66453e-06
1.93024e-06
1.32105e-06
8.37448e-07
4.75952e-07
2.28386e-07
8.1196e-08
1.50577e-08
5.67164e-10
8.32796e-08
1.92275e-07
2.84042e-07
3.65011e-07
4.38054e-07
5.04475e-07
5.64943e-07
6.19826e-07
6.69332e-07
7.1358e-07
7.52645e-07
7.8657e-07
8.15388e-07
8.39121e-07
8.57798e-07
8.7144e-07
8.80095e-07
8.83799e-07
8.82607e-07
8.76605e-07
8.65895e-07
8.50603e-07
8.30888e-07
8.06938e-07
7.78982e-07
7.47286e-07
7.1216e-07
6.73956e-07
6.3307e-07
5.89938e-07
5.45037e-07
4.98878e-07
4.52001e-07
4.04969e-07
3.58355e-07
3.1274e-07
2.68694e-07
2.2677e-07
1.87484e-07
1.51305e-07
1.18641e-07
8.98214e-08
6.5087e-08
4.457e-08
2.8283e-08
1.61081e-08
7.77362e-09
2.81337e-09
5.61511e-10
3.59882e-11
4.87648e-08
1.17188e-09
6.30304e-11
3.35626e-12
1.2048e-13
6.66991e-15
1.03824e-15
1e-15
1e-15
1e-15
1e-15
1e-15
1e-15
1e-15
2.16114e-15
4.4928e-14
9.13389e-13
1.86012e-11
3.82008e-10
8.7652e-09
1.02723e-06
5.59563e-08
2.94312e-09
1.6556e-10
1.05612e-11
5.85679e-13
1.65087e-14
1.28814e-15
1e-15
1e-15
1e-15
1e-15
1e-15
1.21522e-14
2.32179e-13
4.64512e-12
9.39297e-11
1.90432e-09
3.85467e-08
7.64266e-07
3.0144e-07
1.20465e-08
6.32821e-10
3.75801e-11
2.20569e-12
1.34293e-13
5.27171e-15
1e-15
1e-15
1e-15
1e-15
1e-15
1e-15
2.75067e-15
5.04571e-14
1.01058e-12
2.03661e-11
4.1292e-10
8.45698e-09
1.88256e-07
2.33771e-11
3.64505e-10
1.8218e-09
5.00648e-09
1.02803e-08
1.78295e-08
2.7672e-08
3.96779e-08
5.3595e-08
6.90712e-08
8.5682e-08
1.0296e-07
1.20422e-07
1.37602e-07
1.54069e-07
1.69454e-07
1.83458e-07
1.95868e-07
2.06554e-07
2.15475e-07
2.22669e-07
2.28242e-07
2.32363e-07
2.35247e-07
2.37141e-07
2.38315e-07
2.39049e-07
2.39623e-07
2.40308e-07
2.41365e-07
2.43038e-07
2.45557e-07
2.49136e-07
2.53976e-07
2.60264e-07
2.68176e-07
2.77874e-07
2.89508e-07
3.03212e-07
3.19101e-07
3.37268e-07
3.57778e-07
3.8066e-07
4.059e-07
4.33431e-07
4.63129e-07
4.94805e-07
5.28207e-07
5.63028e-07
5.9892e-07
6.35511e-07
6.72426e-07
7.09301e-07
7.45801e-07
7.8162e-07
8.16491e-07
8.50186e-07
8.82507e-07
9.133e-07
9.4244e-07
9.6983e-07
9.954e-07
1.01911e-06
1.04093e-06
1.06088e-06
1.07897e-06
1.09525e-06
1.10978e-06
1.12263e-06
1.13388e-06
1.14362e-06
1.15193e-06
1.15891e-06
1.16466e-06
1.16925e-06
1.17277e-06
1.17531e-06
1.17693e-06
1.1777e-06
1.17768e-06
1.17693e-06
1.1755e-06
1.17343e-06
1.17077e-06
1.16759e-06
1.16391e-06
1.15979e-06
1.15528e-06
1.15042e-06
1.14527e-06
1.13988e-06
1.13431e-06
1.1286e-06
1.12282e-06
1.11701e-06
1.11127e-06
1.10572e-06
1.10059e-06
1.09624e-06
1.09335e-06
3.68432e-10
9.77518e-09
5.25667e-08
1.47043e-07
3.03831e-07
5.28407e-07
8.21301e-07
1.17863e-06
1.59286e-06
2.05348e-06
2.54784e-06
3.06201e-06
3.58164e-06
4.0928e-06
4.58271e-06
5.04034e-06
5.45684e-06
5.82585e-06
6.14356e-06
6.40873e-06
6.62247e-06
6.78802e-06
6.91037e-06
6.99592e-06
7.05206e-06
7.08682e-06
7.10854e-06
7.12553e-06
7.14588e-06
7.17733e-06
7.22713e-06
7.30213e-06
7.4087e-06
7.55279e-06
7.73999e-06
7.9755e-06