/*--------------------------------*- C++ -*----------------------------------*\
| =========                 |                                                 |
| \\      /  F ield         | foam-extend: Open Source CFD                    |
|  \\    /   O peration     | Version:     4.0                                |
|   \\  /    A nd           | Web:         http://www.foam-extend.org         |
|    \\/     M anipulation  |                                                 |
\*---------------------------------------------------------------------------*/
FoamFile
{
    version     2.0;
    format      ascii;
    class       volScalarField;
    location    "0.0018";
    object      nut;
}
// * * * * * * * * * * * * * * * * * * * * * * * * * * * * * * * * * * * * * //

dimensions      [0 2 -1 0 0 0 0];

internalField   nonuniform List<scalar> 
28770
(
3.92826e-15
9.1782e-15
1.37388e-14
1.78988e-14
2.16772e-14
2.51671e-14
2.83731e-14
3.13081e-14
3.39771e-14
3.63822e-14
3.85244e-14
4.04041e-14
4.20213e-14
4.33761e-14
4.44687e-14
4.52998e-14
4.58704e-14
4.61823e-14
4.62379e-14
4.60408e-14
4.55952e-14
4.49064e-14
4.39822e-14
4.28314e-14
4.14646e-14
3.98947e-14
3.81367e-14
3.62075e-14
3.41267e-14
3.19159e-14
2.9599e-14
2.72018e-14
2.47519e-14
2.22782e-14
1.98107e-14
1.738e-14
1.50166e-14
1.27503e-14
1.061e-14
8.62266e-15
6.81248e-15
5.20034e-15
3.80271e-15
2.63066e-15
1.6889e-15
9.74801e-16
4.77408e-16
1.7586e-16
3.61067e-17
2.43427e-18
7.93755e-13
1.61355e-12
2.37771e-12
3.09091e-12
3.742e-12
4.34338e-12
4.89612e-12
5.40217e-12
5.86236e-12
6.27705e-12
6.6464e-12
6.97048e-12
7.24928e-12
7.48282e-12
7.67114e-12
7.81434e-12
7.91262e-12
7.96627e-12
7.97572e-12
7.94156e-12
7.86453e-12
7.74557e-12
7.586e-12
7.38733e-12
7.15142e-12
6.88047e-12
6.57706e-12
6.24415e-12
5.88508e-12
5.5036e-12
5.10382e-12
4.6902e-12
4.2675e-12
3.84072e-12
3.41503e-12
2.99569e-12
2.58797e-12
2.19703e-12
1.82785e-12
1.48506e-12
1.17286e-12
8.9485e-13
6.53861e-13
4.51805e-13
2.89482e-13
1.66408e-13
8.05837e-14
2.8192e-14
4.07095e-15
3.91001e-17
2.08524e-11
3.49789e-11
4.90471e-11
6.29397e-11
7.59414e-11
8.80298e-11
9.91737e-11
1.09386e-10
1.18677e-10
1.27051e-10
1.34509e-10
1.41052e-10
1.4668e-10
1.51392e-10
1.55191e-10
1.58077e-10
1.60054e-10
1.61129e-10
1.6131e-10
1.60608e-10
1.5904e-10
1.56623e-10
1.53385e-10
1.49357e-10
1.44575e-10
1.39084e-10
1.32937e-10
1.26193e-10
1.1892e-10
1.11195e-10
1.03099e-10
9.47248e-11
8.61671e-11
7.75275e-11
6.89109e-11
6.04237e-11
5.21726e-11
4.42622e-11
3.6793e-11
2.98589e-11
2.35447e-11
1.7923e-11
1.30505e-11
8.96458e-12
5.67818e-12
3.17641e-12
1.42e-12
3.82845e-13
2.97279e-14
1.90765e-16
2.05881e-10
2.88363e-10
3.78001e-10
4.72528e-10
5.64667e-10
6.51985e-10
7.33237e-10
8.08018e-10
8.76182e-10
9.37673e-10
9.92461e-10
1.04053e-09
1.08187e-09
1.11647e-09
1.14433e-09
1.16548e-09
1.17993e-09
1.18773e-09
1.18893e-09
1.18364e-09
1.17195e-09
1.15402e-09
1.13002e-09
1.1002e-09
1.06482e-09
1.02422e-09
9.78773e-10
9.28932e-10
8.75194e-10
8.18119e-10
7.5832e-10
6.96466e-10
6.33267e-10
5.69471e-10
5.05851e-10
4.43193e-10
3.82284e-10
3.23893e-10
2.68761e-10
2.17577e-10
1.70958e-10
1.29428e-10
9.33858e-11
6.30798e-11
3.86022e-11
1.99863e-11
7.50142e-12
1.47518e-12
8.60564e-14
5.17572e-16
1.15686e-09
1.42451e-09
1.75057e-09
2.11671e-09
2.48973e-09
2.85308e-09
3.1968e-09
3.51606e-09
3.80853e-09
4.07308e-09
4.30913e-09
4.51636e-09
4.69458e-09
4.84371e-09
4.9637e-09
5.0546e-09
5.11651e-09
5.14959e-09
5.1541e-09
5.13043e-09
5.07904e-09
5.00055e-09
4.89578e-09
4.76573e-09
4.61159e-09
4.43478e-09
4.23698e-09
4.02009e-09
3.7863e-09
3.53803e-09
3.27795e-09
3.00896e-09
2.73414e-09
2.45674e-09
2.1801e-09
1.90764e-09
1.64274e-09
1.38874e-09
1.14879e-09
9.25839e-10
7.22495e-10
5.4096e-10
3.82965e-10
2.49887e-10
1.43284e-10
6.58725e-11
2.05779e-11
3.35193e-12
1.78257e-13
1.05575e-15
4.50595e-09
5.12062e-09
5.97012e-09
6.98071e-09
8.05334e-09
9.12957e-09
1.01688e-08
1.11472e-08
1.20511e-08
1.28729e-08
1.36085e-08
1.42553e-08
1.48119e-08
1.52777e-08
1.56522e-08
1.59354e-08
1.61273e-08
1.62286e-08
1.62399e-08
1.61624e-08
1.59976e-08
1.57474e-08
1.54143e-08
1.50015e-08
1.45127e-08
1.39524e-08
1.33258e-08
1.2639e-08
1.18988e-08
1.11129e-08
1.02897e-08
9.43825e-09
8.56831e-09
7.69008e-09
6.81406e-09
5.95091e-09
5.11123e-09
4.30534e-09
3.54304e-09
2.83344e-09
2.18481e-09
1.60468e-09
1.10046e-09
6.81117e-10
3.59024e-10
1.46698e-10
4.03803e-11
6.02745e-12
3.10341e-13
1.8272e-15
1.36308e-08
1.47913e-08
1.65729e-08
1.88074e-08
2.1266e-08
2.38027e-08
2.63056e-08
2.86992e-08
3.09351e-08
3.29833e-08
3.48253e-08
3.64499e-08
3.78506e-08
3.90231e-08
3.99652e-08
4.06759e-08
4.11551e-08
4.14036e-08
4.14231e-08
4.12163e-08
4.07868e-08
4.01393e-08
3.92804e-08
3.82179e-08
3.69611e-08
3.55215e-08
3.39125e-08
3.21493e-08
3.02493e-08
2.8232e-08
2.61188e-08
2.39328e-08
2.16986e-08
1.94421e-08
1.71898e-08
1.49687e-08
1.28053e-08
1.07257e-08
8.75509e-09
6.91752e-09
5.23712e-09
3.73999e-09
2.45772e-09
1.42968e-09
6.94604e-10
2.59707e-10
6.64992e-11
9.5382e-12
4.84307e-13
2.84245e-15
3.44358e-08
3.64171e-08
3.96074e-08
4.3837e-08
4.8641e-08
5.37225e-08
5.88392e-08
6.38121e-08
6.85148e-08
7.28616e-08
7.67958e-08
8.02807e-08
8.32927e-08
8.5817e-08
8.78443e-08
8.93696e-08
9.03908e-08
9.09084e-08
9.0925e-08
9.04458e-08
8.9478e-08
8.8032e-08
8.61212e-08
8.37626e-08
8.09766e-08
7.77879e-08
7.42254e-08
7.03225e-08
6.6117e-08
6.16514e-08
5.69721e-08
5.21294e-08
4.7177e-08
4.21708e-08
3.71687e-08
3.22291e-08
2.74108e-08
2.27722e-08
1.83725e-08
1.42739e-08
1.05467e-08
7.27525e-09
4.56013e-09
2.49958e-09
1.1378e-09
4.01434e-10
9.88122e-11
1.38965e-11
7.00393e-13
4.10167e-15
7.60408e-08
7.91523e-08
8.43598e-08
9.15241e-08
9.98727e-08
1.08893e-07
1.18141e-07
1.27268e-07
1.36006e-07
1.44162e-07
1.51597e-07
1.58217e-07
1.63957e-07
1.68775e-07
1.72643e-07
1.75544e-07
1.77467e-07
1.78412e-07
1.78379e-07
1.77376e-07
1.75416e-07
1.72519e-07
1.68708e-07
1.64017e-07
1.58484e-07
1.52157e-07
1.45091e-07
1.37351e-07
1.2901e-07
1.2015e-07
1.10861e-07
1.01241e-07
9.1394e-08
8.14288e-08
7.14591e-08
6.16015e-08
5.19763e-08
4.271e-08
3.39397e-08
2.58228e-08
1.85467e-08
1.23292e-08
7.387e-09
3.8537e-09
1.67404e-09
5.69685e-10
1.37167e-10
1.90844e-11
9.57562e-13
5.59807e-15
1.51393e-07
1.56041e-07
1.63972e-07
1.75113e-07
1.8837e-07
2.02952e-07
2.18142e-07
2.33338e-07
2.48058e-07
2.61928e-07
2.74667e-07
2.86072e-07
2.95998e-07
3.04343e-07
3.11037e-07
3.16034e-07
3.19305e-07
3.20838e-07
3.20628e-07
3.18684e-07
3.15025e-07
3.09681e-07
3.02693e-07
2.94117e-07
2.84019e-07
2.72483e-07
2.59605e-07
2.45499e-07
2.30295e-07
2.14136e-07
1.97183e-07
1.79609e-07
1.61602e-07
1.43359e-07
1.25091e-07
1.07022e-07
8.93919e-08
7.2471e-08
5.65685e-08
4.20478e-08
2.93239e-08
1.88191e-08
1.08473e-08
5.44944e-09
2.2926e-09
7.62729e-10
1.81248e-10
2.50556e-11
1.25366e-12
7.32244e-15
2.77566e-07
2.84328e-07
2.95894e-07
3.11923e-07
3.31485e-07
3.53353e-07
3.76445e-07
3.99827e-07
4.22715e-07
4.44473e-07
4.64601e-07
4.82718e-07
4.9854e-07
5.11859e-07
5.22525e-07
5.30434e-07
5.35518e-07
5.37736e-07
5.37067e-07
5.33515e-07
5.271e-07
5.17865e-07
5.05873e-07
4.91207e-07
4.73974e-07
4.54307e-07
4.32362e-07
4.08324e-07
3.82405e-07
3.54843e-07
3.25904e-07
2.95881e-07
2.65092e-07
2.33885e-07
2.02641e-07
1.71781e-07
1.41784e-07
1.132e-07
8.66707e-08
6.29157e-08
4.26738e-08
2.65579e-08
1.48397e-08
7.25327e-09
2.98633e-09
9.79109e-10
2.30687e-10
3.17474e-11
1.58486e-12
9.24967e-15
4.75446e-07
4.8509e-07
5.01055e-07
5.23081e-07
5.50318e-07
5.81151e-07
6.14081e-07
6.47768e-07
6.81045e-07
7.12927e-07
7.4261e-07
7.69456e-07
7.92968e-07
8.12767e-07
8.28572e-07
8.40178e-07
8.4744e-07
8.5026e-07
8.48585e-07
8.42395e-07
8.31704e-07
8.16562e-07
7.97053e-07
7.73296e-07
7.45447e-07
7.13702e-07
6.78299e-07
6.3952e-07
5.97693e-07
5.53194e-07
5.06446e-07
4.57925e-07
4.08165e-07
3.57765e-07
3.07406e-07
2.57869e-07
2.10063e-07
1.65032e-07
1.23945e-07
8.80035e-08
5.82603e-08
3.53589e-08
1.92845e-08
9.24191e-09
3.75127e-09
1.21871e-09
2.85585e-10
3.91765e-11
1.95087e-12
1.13515e-14
7.68808e-07
7.82521e-07
8.03735e-07
8.32875e-07
8.68954e-07
9.10193e-07
9.54648e-07
1.00051e-06
1.04617e-06
1.09021e-06
1.13142e-06
1.16884e-06
1.20167e-06
1.22929e-06
1.25121e-06
1.26707e-06
1.2766e-06
1.2796e-06
1.27596e-06
1.2656e-06
1.24851e-06
1.22474e-06
1.19439e-06
1.1576e-06
1.11459e-06
1.06565e-06
1.01109e-06
9.51351e-07
8.8691e-07
8.18341e-07
7.46307e-07
6.71572e-07
5.95017e-07
5.17664e-07
4.40706e-07
3.65532e-07
2.93748e-07
2.2714e-07
1.67562e-07
1.16707e-07
7.57657e-08
4.51063e-08
2.41414e-08
1.14031e-08
4.58708e-09
1.48368e-09
3.46982e-10
4.75587e-11
2.36855e-12
1.38034e-14
1.18248e-06
1.20228e-06
1.22985e-06
1.26741e-06
1.3129e-06
1.3655e-06
1.42267e-06
1.48207e-06
1.54157e-06
1.59925e-06
1.65348e-06
1.70282e-06
1.74612e-06
1.78243e-06
1.81098e-06
1.83118e-06
1.84257e-06
1.84481e-06
1.83764e-06
1.82093e-06
1.79459e-06
1.75864e-06
1.71318e-06
1.65839e-06
1.59453e-06
1.52197e-06
1.44119e-06
1.35278e-06
1.25744e-06
1.15605e-06
1.04963e-06
9.39381e-07
8.26758e-07
7.1346e-07
6.01488e-07
4.93162e-07
3.91075e-07
2.97959e-07
2.16399e-07
1.48411e-07
9.49786e-08
5.57899e-08
2.94389e-08
1.37624e-08
5.51253e-09
1.78398e-09
4.17806e-10
5.72242e-11
2.83607e-12
1.64016e-14
1.73956e-06
1.76881e-06
1.8041e-06
1.85107e-06
1.90654e-06
1.9709e-06
2.04126e-06
2.11476e-06
2.18873e-06
2.26073e-06
2.32858e-06
2.39038e-06
2.4445e-06
2.4896e-06
2.52456e-06
2.54846e-06
2.56058e-06
2.56037e-06
2.54738e-06
2.52133e-06
2.48203e-06
2.42944e-06
2.36362e-06
2.28476e-06
2.19318e-06
2.08935e-06
1.97392e-06
1.84771e-06
1.71176e-06
1.56737e-06
1.41609e-06
1.25985e-06
1.10093e-06
9.42053e-07
7.86401e-07
6.37547e-07
4.99318e-07
3.75478e-07
2.6923e-07
1.82606e-07
1.15834e-07
6.73928e-08
3.52015e-08
1.64013e-08
6.60893e-09
2.16684e-09
5.14953e-10
7.13281e-11
3.5201e-12
1.90562e-14
2.4575e-06
2.50164e-06
2.54651e-06
2.60371e-06
2.66989e-06
2.74569e-06
2.82879e-06
2.91593e-06
3.00391e-06
3.08974e-06
3.1707e-06
3.24434e-06
3.30855e-06
3.36149e-06
3.40161e-06
3.42761e-06
3.43842e-06
3.43318e-06
3.4112e-06
3.37197e-06
3.31513e-06
3.24053e-06
3.14816e-06
3.03818e-06
2.91098e-06
2.76714e-06
2.60755e-06
2.43334e-06
2.24603e-06
2.04752e-06
1.8402e-06
1.62698e-06
1.41138e-06
1.19753e-06
9.90117e-07
7.94249e-07
6.15086e-07
4.57353e-07
3.24683e-07
2.19014e-07
1.62742e-07
8.85659e-08
4.69319e-08
2.24911e-08
9.56327e-09
3.39899e-09
9.15833e-10
1.57128e-10
1.15368e-11
8.34957e-14
3.34359e-06
3.41077e-06
3.46794e-06
3.53658e-06
3.61453e-06
3.70034e-06
3.79464e-06
3.89376e-06
3.994e-06
4.09187e-06
4.18407e-06
4.26764e-06
4.3399e-06
4.39849e-06
4.44138e-06
4.46679e-06
4.47323e-06
4.45945e-06
4.42442e-06
4.36735e-06
4.28763e-06
4.18492e-06
4.05908e-06
3.91027e-06
3.73889e-06
3.54571e-06
3.33188e-06
3.09903e-06
2.84931e-06
2.58551e-06
2.31114e-06
2.0305e-06
1.74871e-06
1.47167e-06
1.20587e-06
9.58039e-07
7.34566e-07
5.4084e-07
3.80463e-07
2.54398e-07
1.8597e-07
1.01342e-07
5.29075e-08
2.53708e-08
1.09399e-08
3.96014e-09
1.08043e-09
1.85769e-10
1.31319e-11
8.49122e-14
4.39033e-06
4.4918e-06
4.56492e-06
4.64634e-06
4.73581e-06
4.83138e-06
4.93455e-06
5.04286e-06
5.15235e-06
5.25908e-06
5.3593e-06
5.4495e-06
5.52646e-06
5.58729e-06
5.62939e-06
5.65049e-06
5.64858e-06
5.62195e-06
5.56915e-06
5.48899e-06
5.38058e-06
5.2433e-06
5.07687e-06
4.88136e-06
4.65725e-06
4.40551e-06
4.12771e-06
3.82608e-06
3.50367e-06
3.16444e-06
2.81337e-06
2.45653e-06
2.10101e-06
1.75473e-06
1.42611e-06
1.1234e-06
8.53975e-07
6.23449e-07
4.34997e-07
2.88443e-07
2.08255e-07
1.13111e-07
5.87114e-08
2.8288e-08
1.23378e-08
4.4964e-09
1.22781e-09
2.12601e-10
1.51336e-11
9.8377e-14
5.57158e-06
5.72125e-06
5.81493e-06
5.91079e-06
6.01168e-06
6.11715e-06
6.22608e-06
6.33979e-06
6.4544e-06
6.56569e-06
6.66952e-06
6.76191e-06
6.83915e-06
6.89779e-06
6.93468e-06
6.94699e-06
6.93215e-06
6.88792e-06
6.81235e-06
6.7038e-06
6.56099e-06
6.38299e-06
6.16932e-06
5.91996e-06
5.63549e-06
5.31716e-06
4.96706e-06
4.58825e-06
4.18489e-06
3.76244e-06
3.32767e-06
2.88871e-06
2.45485e-06
2.03618e-06
1.64298e-06
1.28487e-06
9.69803e-07
7.03254e-07
4.87617e-07
3.2159e-07
2.30777e-07
1.2546e-07
6.51979e-08
3.16081e-08
1.3894e-08
4.42252e-09
1.15799e-09
1.97908e-10
1.30231e-11
4.94735e-14
6.84071e-06
7.05358e-06
7.17289e-06
7.285e-06
7.39721e-06
7.51139e-06
7.62476e-06
7.73965e-06
7.85465e-06
7.96549e-06
8.06783e-06
8.15734e-06
8.22985e-06
8.28141e-06
8.30832e-06
8.30717e-06
8.27481e-06
8.20842e-06
8.10549e-06
7.96389e-06
7.78187e-06
7.55817e-06
7.29208e-06
6.9835e-06
6.63312e-06
6.24259e-06
5.81462e-06
5.35328e-06
4.8641e-06
4.35424e-06
3.83251e-06
3.3093e-06
2.79619e-06
2.30537e-06
1.84879e-06
1.4371e-06
1.07855e-06
7.78127e-07
5.37209e-07
3.53301e-07
2.52609e-07
1.3829e-07
7.21167e-08
3.51404e-08
1.54875e-08
4.92482e-09
1.32402e-09
2.30354e-10
1.53276e-11
6.09095e-14
8.1317e-06
8.42111e-06
8.57064e-06
8.70056e-06
8.82381e-06
8.94481e-06
9.06267e-06
9.17528e-06
9.28586e-06
9.39127e-06
9.48705e-06
9.5687e-06
9.63168e-06
9.67158e-06
9.68419e-06
9.66552e-06
9.61186e-06
9.51977e-06
9.38618e-06
9.2084e-06
8.98424e-06
8.71206e-06
8.39092e-06
8.02065e-06
7.60213e-06
7.13743e-06
6.63004e-06
6.08515e-06
5.50979e-06
4.91298e-06
4.30567e-06
3.70051e-06
3.11129e-06
2.55211e-06
2.03628e-06
1.57516e-06
1.17694e-06
8.45924e-07
5.82341e-07
3.82401e-07
2.72463e-07
1.50506e-07
7.87056e-08
3.84581e-08
1.69864e-08
5.40868e-09
1.46279e-09
2.52973e-10
1.7082e-11
6.91428e-14
9.36379e-06
9.73775e-06
9.92023e-06
1.00686e-05
1.02023e-05
1.03286e-05
1.04484e-05
1.05589e-05
1.06617e-05
1.07576e-05
1.08427e-05
1.09126e-05
1.09623e-05
1.09872e-05
1.09826e-05
1.09438e-05
1.08668e-05
1.07474e-05
1.0582e-05
1.03674e-05
1.0101e-05
9.78073e-06
9.40547e-06
8.97504e-06
8.49048e-06
7.95436e-06
7.37101e-06
6.74676e-06
6.09019e-06
5.41217e-06
4.7257e-06
4.04554e-06
3.38745e-06
2.76712e-06
2.19891e-06
1.69452e-06
1.26192e-06
9.04573e-07
6.21563e-07
4.07823e-07
2.89572e-07
1.61295e-07
8.44997e-08
4.13934e-08
1.83482e-08
5.87387e-09
1.60444e-09
2.82696e-10
1.97e-11
7.70696e-14
1.04494e-05
1.0907e-05
1.11219e-05
1.12878e-05
1.14308e-05
1.15608e-05
1.16806e-05
1.17892e-05
1.18838e-05
1.19678e-05
1.204e-05
1.20959e-05
1.21308e-05
1.21394e-05
1.21167e-05
1.20577e-05
1.19577e-05
1.1812e-05
1.16166e-05
1.13679e-05
1.10626e-05
1.06986e-05
1.02744e-05
9.78996e-06
9.24648e-06
8.64701e-06
7.99666e-06
7.30288e-06
6.57565e-06
5.82751e-06
5.07328e-06
4.3295e-06
3.61355e-06
2.94235e-06
2.33097e-06
1.79125e-06
1.33076e-06
9.52182e-07
6.53562e-07
4.2874e-07
3.03554e-07
1.70456e-07
8.94967e-08
4.39977e-08
1.96223e-08
6.36759e-09
1.76328e-09
3.19663e-10
1.93387e-11
2.02863e-13
1.13042e-05
1.18338e-05
1.20761e-05
1.22565e-05
1.24066e-05
1.2539e-05
1.26576e-05
1.27627e-05
1.28523e-05
1.2925e-05
1.29842e-05
1.30268e-05
1.30476e-05
1.30414e-05
1.30026e-05
1.2926e-05
1.28062e-05
1.26384e-05
1.24181e-05
1.21412e-05
1.18044e-05
1.1405e-05
1.09416e-05
1.0414e-05
9.82367e-06
9.17413e-06
8.47111e-06
7.72297e-06
6.94083e-06
6.13856e-06
5.33238e-06
4.54021e-06
3.7806e-06
3.07131e-06
2.42786e-06
1.86208e-06
1.38116e-06
9.87113e-07
6.77171e-07
4.44364e-07
3.13882e-07
1.77851e-07
9.36839e-08
4.62682e-08
2.08101e-08
6.87003e-09
1.95666e-09
3.686e-10
2.33324e-11
2.56354e-13
1.18644e-05
1.24442e-05
1.27061e-05
1.28962e-05
1.3051e-05
1.31844e-05
1.33017e-05
1.34035e-05
1.34887e-05
1.35549e-05
1.3604e-05
1.36362e-05
1.36467e-05
1.36296e-05
1.35793e-05
1.34901e-05
1.33566e-05
1.31735e-05
1.29362e-05
1.26402e-05
1.22821e-05
1.1859e-05
1.13695e-05
1.08133e-05
1.01922e-05
9.50981e-06
8.77237e-06
7.98887e-06
7.1712e-06
6.33407e-06
5.49463e-06
4.67166e-06
3.88441e-06
3.15118e-06
2.48769e-06
1.90574e-06
1.41221e-06
1.00868e-06
6.91838e-07
4.54211e-07
3.1998e-07
1.83081e-07
9.67876e-08
4.80188e-08
2.17799e-08
7.32533e-09
2.18042e-09
4.53827e-10
5.78225e-11
1.31971e-12
1.20681e-05
1.26669e-05
1.2936e-05
1.31293e-05
1.32852e-05
1.34184e-05
1.35346e-05
1.36346e-05
1.37175e-05
1.37811e-05
1.38257e-05
1.38535e-05
1.38596e-05
1.3838e-05
1.3783e-05
1.36888e-05
1.35499e-05
1.33609e-05
1.31171e-05
1.28139e-05
1.24478e-05
1.2016e-05
1.15169e-05
1.09504e-05
1.03182e-05
9.62402e-06
8.87437e-06
8.07842e-06
7.24831e-06
6.39908e-06
5.54818e-06
4.71469e-06
3.9181e-06
3.17684e-06
2.50671e-06
1.91947e-06
1.42188e-06
1.01535e-06
6.96369e-07
4.5728e-07
3.2099e-07
1.85452e-07
9.82514e-08
4.88657e-08
2.22784e-08
7.57472e-09
2.32135e-09
5.30066e-10
8.79571e-11
6.83257e-12
1.1897e-05
1.24787e-05
1.27408e-05
1.29298e-05
1.30829e-05
1.32146e-05
1.333e-05
1.343e-05
1.35132e-05
1.35775e-05
1.36246e-05
1.36552e-05
1.3664e-05
1.36453e-05
1.35934e-05
1.35026e-05
1.33675e-05
1.3183e-05
1.29441e-05
1.26466e-05
1.2287e-05
1.18625e-05
1.13716e-05
1.08142e-05
1.01918e-05
9.50834e-06
8.76996e-06
7.98569e-06
7.16743e-06
6.3299e-06
5.49026e-06
4.66728e-06
3.88021e-06
3.14729e-06
2.48423e-06
1.90279e-06
1.4098e-06
1.00682e-06
6.90507e-07
4.53346e-07
3.1677e-07
1.84442e-07
9.76509e-08
4.85121e-08
2.20653e-08
7.40697e-09
2.22416e-09
4.777e-10
6.206e-11
1.80631e-12
1.13684e-05
1.19009e-05
1.21428e-05
1.23203e-05
1.2467e-05
1.25958e-05
1.27108e-05
1.28122e-05
1.2898e-05
1.2967e-05
1.30227e-05
1.3062e-05
1.30797e-05
1.30704e-05
1.30285e-05
1.29488e-05
1.28261e-05
1.26554e-05
1.24321e-05
1.21524e-05
1.18127e-05
1.14106e-05
1.09445e-05
1.04145e-05
9.82191e-06
9.17033e-06
8.46554e-06
7.71596e-06
6.93275e-06
6.12977e-06
5.32326e-06
4.53114e-06
3.77192e-06
3.0633e-06
2.42075e-06
1.85602e-06
1.37622e-06
9.83292e-07
6.7441e-07
4.42575e-07
3.07834e-07
1.80215e-07
9.51347e-08
4.7062e-08
2.12303e-08
6.95037e-09
1.99645e-09
3.83876e-10
3.77798e-11
2.70976e-13
1.0542e-05
1.10024e-05
1.12153e-05
1.13764e-05
1.15142e-05
1.16389e-05
1.17534e-05
1.18567e-05
1.1946e-05
1.20249e-05
1.20923e-05
1.21437e-05
1.21741e-05
1.21784e-05
1.21514e-05
1.20882e-05
1.1984e-05
1.18342e-05
1.16347e-05
1.13819e-05
1.10727e-05
1.07049e-05
1.02771e-05
9.78923e-06
9.24259e-06
8.64029e-06
7.98751e-06
7.29175e-06
6.56306e-06
5.81398e-06
5.05935e-06
4.31572e-06
3.6004e-06
2.93024e-06
2.32022e-06
1.78209e-06
1.32327e-06
9.46378e-07
6.49349e-07
4.26028e-07
2.95046e-07
1.73536e-07
9.13005e-08
4.49313e-08
2.0077e-08
6.42949e-09
1.79268e-09
3.27677e-10
3.05094e-11
2.06077e-13
9.47488e-06
9.85123e-06
1.00309e-05
1.01732e-05
1.03006e-05
1.04204e-05
1.05338e-05
1.0638e-05
1.07344e-05
1.08244e-05
1.0904e-05
1.09684e-05
1.10128e-05
1.10325e-05
1.10227e-05
1.09789e-05
1.08968e-05
1.07725e-05
1.06022e-05
1.03828e-05
1.01116e-05
9.7868e-06
9.40717e-06
8.97261e-06
8.48426e-06
7.94476e-06
7.35849e-06
6.73188e-06
6.07356e-06
5.39443e-06
4.70754e-06
4.02761e-06
3.37035e-06
2.75137e-06
2.18492e-06
1.68258e-06
1.25215e-06
8.96993e-07
6.16054e-07
4.04285e-07
2.78927e-07
1.64952e-07
8.65722e-08
4.24163e-08
1.88054e-08
5.92692e-09
1.62482e-09
2.88602e-10
2.048e-11
8.37523e-14
8.2536e-06
8.54438e-06
8.69036e-06
8.81345e-06
8.92969e-06
9.04362e-06
9.15448e-06
9.26015e-06
9.3641e-06
9.46324e-06
9.55299e-06
9.62876e-06
9.68597e-06
9.72021e-06
9.72723e-06
9.70303e-06
9.64387e-06
9.54633e-06
9.40734e-06
9.22425e-06
8.99489e-06
8.71767e-06
8.39169e-06
8.01687e-06
7.59415e-06
7.12568e-06
6.61505e-06
6.06752e-06
5.49019e-06
4.89214e-06
4.28434e-06
3.67943e-06
3.09115e-06
2.53351e-06
2.01971e-06
1.56095e-06
1.16528e-06
8.3687e-07
5.75769e-07
3.78217e-07
2.60059e-07
1.54771e-07
8.10968e-08
3.96092e-08
1.74722e-08
5.44902e-09
1.47796e-09
2.56545e-10
1.70208e-11
6.73175e-14
6.96518e-06
7.17825e-06
7.29361e-06
7.39862e-06
7.50366e-06
7.61065e-06
7.71692e-06
7.82496e-06
7.93346e-06
8.03808e-06
8.13437e-06
8.21798e-06
8.28468e-06
8.33052e-06
8.35176e-06
8.34496e-06
8.30699e-06
8.23501e-06
8.12654e-06
7.97947e-06
7.79208e-06
7.56317e-06
7.29207e-06
6.97877e-06
6.62402e-06
6.22955e-06
5.79818e-06
5.33405e-06
4.84276e-06
4.33154e-06
3.80924e-06
3.28623e-06
2.77406e-06
2.28484e-06
1.8304e-06
1.42124e-06
1.06547e-06
7.67917e-07
5.29755e-07
3.48557e-07
2.38685e-07
1.43056e-07
7.48345e-08
3.6458e-08
1.60362e-08
4.97259e-09
1.34019e-09
2.34091e-10
1.5323e-11
5.85432e-14
5.69134e-06
5.84011e-06
5.92972e-06
6.01868e-06
6.11272e-06
6.21139e-06
6.31362e-06
6.42099e-06
6.52957e-06
6.63504e-06
6.73318e-06
6.81999e-06
6.89172e-06
6.94489e-06
6.97634e-06
6.98321e-06
6.96295e-06
6.9133e-06
6.83234e-06
6.71847e-06
6.57041e-06
6.38731e-06
6.16873e-06
5.91472e-06
5.62593e-06
5.3037e-06
4.95019e-06
4.56856e-06
4.16305e-06
3.73916e-06
3.30372e-06
2.86487e-06
2.43186e-06
2.01472e-06
1.62362e-06
1.26803e-06
9.55811e-07
6.92228e-07
4.79451e-07
3.16347e-07
2.16107e-07
1.30243e-07
6.791e-08
3.29616e-08
1.44762e-08
4.47443e-09
1.1778e-09
2.03483e-10
1.35068e-11
4.99138e-14
4.49963e-06
4.59935e-06
4.66858e-06
4.7437e-06
4.82698e-06
4.91645e-06
5.01375e-06
5.11652e-06
5.22069e-06
5.32226e-06
5.4174e-06
5.5026e-06
5.57459e-06
5.63045e-06
5.66758e-06
5.68369e-06
5.67679e-06
5.64516e-06
5.58737e-06
5.50226e-06
5.38897e-06
5.24693e-06
5.07591e-06
4.87602e-06
4.64784e-06
4.3924e-06
4.11134e-06
3.80698e-06
3.48245e-06
3.14177e-06
2.78996e-06
2.4331e-06
2.07826e-06
1.73334e-06
1.40665e-06
1.10634e-06
8.39637e-07
6.1197e-07
4.26297e-07
2.82715e-07
1.93266e-07
1.17272e-07
6.09839e-08
2.9419e-08
1.28588e-08
4.68335e-09
1.2774e-09
2.24871e-10
1.64616e-11
1.08324e-13
3.43855e-06
3.50351e-06
3.55721e-06
3.6204e-06
3.69308e-06
3.77375e-06
3.86319e-06
3.95769e-06
4.05347e-06
4.14697e-06
4.23486e-06
4.31415e-06
4.38212e-06
4.4364e-06
4.47495e-06
4.49598e-06
4.49803e-06
4.47983e-06
4.44038e-06
4.3789e-06
4.29484e-06
4.18787e-06
4.05792e-06
3.90517e-06
3.73011e-06
3.53357e-06
3.31677e-06
3.0814e-06
2.82968e-06
2.56446e-06
2.28929e-06
2.0085e-06
1.72721e-06
1.45129e-06
1.18716e-06
9.41453e-07
7.20442e-07
5.29345e-07
3.71657e-07
2.4863e-07
1.70928e-07
1.05157e-07
5.47358e-08
2.62644e-08
1.138e-08
4.13774e-09
1.1314e-09
1.94441e-10
1.37039e-11
8.84695e-14
2.53618e-06
2.57799e-06
2.61998e-06
2.67272e-06
2.73464e-06
2.80638e-06
2.88565e-06
2.96912e-06
3.05353e-06
3.13585e-06
3.21331e-06
3.28344e-06
3.34411e-06
3.39347e-06
3.42995e-06
3.45228e-06
3.45937e-06
3.45038e-06
3.42464e-06
3.38165e-06
3.32111e-06
3.24286e-06
3.14695e-06
3.03359e-06
2.9032e-06
2.75644e-06
2.59424e-06
2.41779e-06
2.22867e-06
2.02884e-06
1.82072e-06
1.60725e-06
1.39195e-06
1.17895e-06
9.72899e-07
7.78823e-07
6.01806e-07
4.46478e-07
3.16482e-07
2.13984e-07
1.46543e-07
9.30781e-08
4.89695e-08
2.34306e-08
1.00405e-08
3.60728e-09
9.79997e-10
1.68334e-10
1.19469e-11
7.83382e-14
1.80176e-06
1.82888e-06
1.86192e-06
1.90545e-06
1.95768e-06
2.01901e-06
2.0865e-06
2.15723e-06
2.22849e-06
2.29778e-06
2.36291e-06
2.42195e-06
2.47327e-06
2.51551e-06
2.54754e-06
2.56848e-06
2.57759e-06
2.57432e-06
2.55827e-06
2.52915e-06
2.48681e-06
2.43123e-06
2.36249e-06
2.28083e-06
2.18661e-06
2.08034e-06
1.96272e-06
1.83461e-06
1.6971e-06
1.55152e-06
1.39949e-06
1.24293e-06
1.08415e-06
9.25879e-07
7.71264e-07
6.23846e-07
4.87405e-07
3.65654e-07
2.61857e-07
1.78327e-07
1.13456e-07
6.57999e-08
3.43797e-08
1.60178e-08
6.47736e-09
2.12881e-09
5.054e-10
7.01284e-11
3.45023e-12
1.86373e-14
1.22935e-06
1.24739e-06
1.27332e-06
1.30839e-06
1.35158e-06
1.40204e-06
1.45717e-06
1.51459e-06
1.57212e-06
1.62783e-06
1.68002e-06
1.72729e-06
1.76846e-06
1.80258e-06
1.82888e-06
1.84678e-06
1.85583e-06
1.85569e-06
1.84612e-06
1.827e-06
1.79827e-06
1.75996e-06
1.7122e-06
1.6552e-06
1.58924e-06
1.51474e-06
1.4322e-06
1.34224e-06
1.24562e-06
1.14323e-06
1.03613e-06
9.25549e-07
8.12947e-07
7.00032e-07
5.88803e-07
4.8156e-07
3.80863e-07
2.89372e-07
2.09628e-07
1.43951e-07
9.24665e-08
5.42803e-08
2.87115e-08
1.34642e-08
5.41253e-09
1.75368e-09
4.11025e-10
5.62704e-11
2.78741e-12
1.6151e-14
8.02394e-07
8.14778e-07
8.34902e-07
8.62339e-07
8.96908e-07
9.36734e-07
9.79833e-07
1.02436e-06
1.06866e-06
1.11131e-06
1.15109e-06
1.18701e-06
1.21829e-06
1.2443e-06
1.26456e-06
1.27871e-06
1.2865e-06
1.28773e-06
1.28228e-06
1.27012e-06
1.25124e-06
1.22569e-06
1.1936e-06
1.15514e-06
1.11055e-06
1.06012e-06
1.00422e-06
9.43284e-07
8.77836e-07
8.08469e-07
7.35868e-07
6.60816e-07
5.84206e-07
5.07072e-07
4.30609e-07
3.5621e-07
2.85475e-07
2.20133e-07
1.61896e-07
1.12609e-07
7.31572e-08
4.35815e-08
2.3384e-08
1.10612e-08
4.45747e-09
1.44262e-09
3.37379e-10
4.61861e-11
2.29468e-12
1.33411e-14
4.98232e-07
5.06964e-07
5.22275e-07
5.43237e-07
5.69557e-07
5.99528e-07
6.31616e-07
6.64451e-07
6.96846e-07
7.27804e-07
7.56513e-07
7.82333e-07
8.04767e-07
8.23441e-07
8.38077e-07
8.48475e-07
8.54499e-07
8.56055e-07
8.53098e-07
8.45618e-07
8.3364e-07
8.17227e-07
7.96473e-07
7.71512e-07
7.42516e-07
7.09698e-07
6.73312e-07
6.3366e-07
5.91087e-07
5.45985e-07
4.98794e-07
4.50003e-07
4.00156e-07
3.49861e-07
2.99802e-07
2.50767e-07
2.03675e-07
1.59563e-07
1.19476e-07
8.46268e-08
5.59636e-08
3.3957e-08
1.85336e-08
8.88118e-09
3.60762e-09
1.17249e-09
2.7472e-10
3.7645e-11
1.8715e-12
1.08826e-14
2.92112e-07
2.98309e-07
3.09536e-07
3.24968e-07
3.4403e-07
3.65421e-07
3.88032e-07
4.1091e-07
4.33258e-07
4.54434e-07
4.73935e-07
4.91382e-07
5.06493e-07
5.19063e-07
5.28947e-07
5.36046e-07
5.40297e-07
5.41661e-07
5.40126e-07
5.357e-07
5.28413e-07
5.18315e-07
5.05476e-07
4.8999e-07
4.71974e-07
4.51572e-07
4.28952e-07
4.0431e-07
3.77869e-07
3.4988e-07
3.20619e-07
2.90386e-07
2.59509e-07
2.28342e-07
1.97268e-07
1.66711e-07
1.37156e-07
1.09166e-07
8.3321e-08
6.03106e-08
4.08187e-08
2.53673e-08
1.4162e-08
6.91424e-09
2.84607e-09
9.32499e-10
2.19408e-10
3.01203e-11
1.49825e-12
8.71223e-15
1.60048e-07
1.64388e-07
1.72181e-07
1.83039e-07
1.96064e-07
2.10414e-07
2.25355e-07
2.40276e-07
2.54686e-07
2.68211e-07
2.80571e-07
2.91564e-07
3.01047e-07
3.08923e-07
3.15124e-07
3.19609e-07
3.22353e-07
3.23344e-07
3.22584e-07
3.20085e-07
3.1587e-07
3.09975e-07
3.02447e-07
2.93346e-07
2.82747e-07
2.70738e-07
2.57425e-07
2.42927e-07
2.27382e-07
2.10941e-07
1.9377e-07
1.76049e-07
1.57969e-07
1.39732e-07
1.21554e-07
1.03656e-07
8.62818e-08
6.97095e-08
5.42281e-08
4.01764e-08
2.79378e-08
1.78857e-08
1.02876e-08
5.15754e-09
2.16644e-09
7.19198e-10
1.70421e-10
2.34688e-11
1.16857e-12
6.79556e-15
8.07756e-08
8.37501e-08
8.8937e-08
9.59967e-08
1.04264e-07
1.13191e-07
1.22327e-07
1.31316e-07
1.39891e-07
1.47855e-07
1.55075e-07
1.61458e-07
1.66942e-07
1.71486e-07
1.75066e-07
1.77666e-07
1.79279e-07
1.79904e-07
1.79546e-07
1.78215e-07
1.75927e-07
1.72703e-07
1.68572e-07
1.6357e-07
1.57738e-07
1.5113e-07
1.43803e-07
1.35828e-07
1.27281e-07
1.18249e-07
1.08825e-07
9.91107e-08
8.92118e-08
7.92406e-08
6.93125e-08
5.95451e-08
5.00576e-08
4.09796e-08
3.24427e-08
2.45928e-08
1.76012e-08
1.16622e-08
6.9656e-09
3.62277e-09
1.56915e-09
5.32101e-10
1.27598e-10
1.76659e-11
8.81186e-13
5.12513e-15
3.67696e-08
3.87126e-08
4.1934e-08
4.61459e-08
5.09382e-08
5.59942e-08
6.10681e-08
6.59795e-08
7.06022e-08
7.48521e-08
7.86744e-08
8.20342e-08
8.49098e-08
8.72878e-08
8.91606e-08
9.05244e-08
9.13786e-08
9.17244e-08
9.15658e-08
9.09094e-08
8.97639e-08
8.81416e-08
8.60573e-08
8.35299e-08
8.0582e-08
7.72401e-08
7.35355e-08
6.95038e-08
6.51852e-08
6.0624e-08
5.58687e-08
5.09715e-08
4.59871e-08
4.09731e-08
3.59881e-08
3.10914e-08
2.63408e-08
2.17953e-08
1.75123e-08
1.35495e-08
9.97048e-09
6.85011e-09
4.2765e-09
2.33466e-09
1.05832e-09
3.71626e-10
9.09995e-11
1.2719e-11
6.36369e-13
3.70249e-15
1.46361e-08
1.5803e-08
1.76262e-08
1.98735e-08
2.23432e-08
2.48793e-08
2.73695e-08
2.97387e-08
3.19395e-08
3.39433e-08
3.5733e-08
3.72986e-08
3.86343e-08
3.97371e-08
4.06053e-08
4.12387e-08
4.16378e-08
4.18038e-08
4.17392e-08
4.14471e-08
4.0932e-08
4.01996e-08
3.9257e-08
3.81129e-08
3.67777e-08
3.52639e-08
3.35858e-08
3.17597e-08
2.98043e-08
2.77398e-08
2.55887e-08
2.3375e-08
2.11238e-08
1.88616e-08
1.66153e-08
1.44123e-08
1.22787e-08
1.02404e-08
8.32172e-09
6.54514e-09
4.93222e-09
3.50568e-09
2.29267e-09
1.32704e-09
6.41344e-10
2.38394e-10
6.06503e-11
8.6327e-12
4.34348e-13
2.5288e-15
4.86768e-09
5.50056e-09
6.38056e-09
7.40606e-09
8.49024e-09
9.57067e-09
1.06075e-08
1.15775e-08
1.24679e-08
1.32721e-08
1.39865e-08
1.46093e-08
1.51394e-08
1.55766e-08
1.59208e-08
1.61722e-08
1.63312e-08
1.63985e-08
1.63751e-08
1.62625e-08
1.60623e-08
1.57769e-08
1.54092e-08
1.49626e-08
1.44412e-08
1.38499e-08
1.31945e-08
1.24814e-08
1.17179e-08
1.0912e-08
1.00726e-08
9.20908e-09
8.33147e-09
7.45015e-09
6.5758e-09
5.71919e-09
4.89078e-09
4.10072e-09
3.35844e-09
2.67241e-09
2.05e-09
1.4976e-09
1.02129e-09
6.28403e-10
3.29154e-10
1.33563e-10
3.64804e-11
5.39426e-12
2.74619e-13
1.601e-15
1.25821e-09
1.53951e-09
1.88082e-09
2.2552e-09
2.63427e-09
3.00026e-09
3.34385e-09
3.66071e-09
3.94895e-09
4.20779e-09
4.43692e-09
4.63623e-09
4.80571e-09
4.94539e-09
5.05535e-09
5.13571e-09
5.18668e-09
5.20848e-09
5.20145e-09
5.16606e-09
5.10287e-09
5.01264e-09
4.89628e-09
4.75489e-09
4.58981e-09
4.40259e-09
4.19505e-09
3.96925e-09
3.72752e-09
3.47241e-09
3.20674e-09
2.93351e-09
2.6559e-09
2.37723e-09
2.10088e-09
1.83031e-09
1.56886e-09
1.31978e-09
1.08612e-09
8.70582e-10
6.75509e-10
5.02751e-10
3.53659e-10
2.29203e-10
1.30465e-10
5.94993e-11
1.84185e-11
2.96648e-12
1.55569e-13
9.09927e-16
2.25688e-10
3.13814e-10
4.08479e-10
5.05709e-10
5.99755e-10
6.87913e-10
7.69241e-10
8.43503e-10
9.10687e-10
9.70831e-10
1.02398e-09
1.07016e-09
1.10941e-09
1.14176e-09
1.16722e-09
1.18584e-09
1.19766e-09
1.20275e-09
1.20117e-09
1.19304e-09
1.1785e-09
1.15772e-09
1.13091e-09
1.09833e-09
1.06028e-09
1.01713e-09
9.69301e-10
9.17265e-10
8.6156e-10
8.0278e-10
7.41572e-10
6.78632e-10
6.14695e-10
5.50525e-10
4.86905e-10
4.2463e-10
3.64477e-10
3.07198e-10
2.535e-10
2.04021e-10
1.59311e-10
1.19812e-10
8.58342e-11
5.75339e-11
3.49146e-11
1.79118e-11
6.65324e-12
1.29131e-12
7.40544e-14
4.38236e-16
2.30848e-11
3.83811e-11
5.33421e-11
6.76882e-11
8.10041e-11
9.32264e-11
1.0439e-10
1.14536e-10
1.23694e-10
1.31882e-10
1.39114e-10
1.45395e-10
1.50733e-10
1.5513e-10
1.58592e-10
1.61124e-10
1.62732e-10
1.63424e-10
1.63211e-10
1.62109e-10
1.60135e-10
1.57314e-10
1.53674e-10
1.4925e-10
1.44085e-10
1.38227e-10
1.31734e-10
1.24671e-10
1.17111e-10
1.09134e-10
1.00828e-10
9.22881e-11
8.3614e-11
7.49095e-11
6.62807e-11
5.78353e-11
4.96789e-11
4.19136e-11
3.46353e-11
2.7931e-11
2.18762e-11
1.6532e-11
1.19429e-11
8.1328e-12
5.10221e-12
2.82427e-12
1.24775e-12
3.31407e-13
2.52034e-14
1.58247e-16
8.89692e-13
1.78734e-12