/*--------------------------------*- C++ -*----------------------------------*\
| =========                 |                                                 |
| \\      /  F ield         | foam-extend: Open Source CFD                    |
|  \\    /   O peration     | Version:     4.0                                |
|   \\  /    A nd           | Web:         http://www.foam-extend.org         |
|    \\/     M anipulation  |                                                 |
\*---------------------------------------------------------------------------*/
FoamFile
{
    version     2.0;
    format      ascii;
    class       volScalarField;
    location    "0.0018";
    object      omega;
}
// * * * * * * * * * * * * * * * * * * * * * * * * * * * * * * * * * * * * * //

dimensions      [0 0 -1 0 0 0 0];

internalField   nonuniform List<scalar> 
28770
(
1.87595e+07
1.87595e+07
1.87595e+07
1.87595e+07
1.87595e+07
1.87595e+07
1.87595e+07
1.87595e+07
1.87595e+07
1.87595e+07
1.87595e+07
1.87595e+07
1.87595e+07
1.87595e+07
1.87595e+07
1.87595e+07
1.87595e+07
1.87595e+07
1.87595e+07
1.87595e+07
1.87595e+07
1.87595e+07
1.87595e+07
1.87595e+07
1.87595e+07
1.87595e+07
1.87595e+07
1.87595e+07
1.87595e+07
1.87595e+07
1.87595e+07
1.87595e+07
1.87595e+07
1.87595e+07
1.87595e+07
1.87595e+07
1.87595e+07
1.87595e+07
1.87595e+07
1.87595e+07
1.87595e+07
1.87595e+07
1.87595e+07
1.87595e+07
1.87595e+07
1.87595e+07
1.87595e+07
1.87595e+07
1.87595e+07
1.87595e+07
2.70002e+06
3.18573e+06
3.23008e+06
3.23475e+06
3.23538e+06
3.23549e+06
3.23552e+06
3.23553e+06
3.23554e+06
3.23554e+06
3.23554e+06
3.23554e+06
3.23554e+06
3.23554e+06
3.23554e+06
3.23554e+06
3.23554e+06
3.23554e+06
3.23554e+06
3.23555e+06
3.23555e+06
3.23555e+06
3.23555e+06
3.23555e+06
3.23555e+06
3.23555e+06
3.23555e+06
3.23556e+06
3.23556e+06
3.23556e+06
3.23556e+06
3.23556e+06
3.23557e+06
3.23557e+06
3.23557e+06
3.23558e+06
3.23558e+06
3.23559e+06
3.23559e+06
3.2356e+06
3.23562e+06
3.23565e+06
3.23571e+06
3.23589e+06
3.23648e+06
3.23896e+06
3.2531e+06
3.36215e+06
4.4313e+06
1.79872e+07
679337
1.01711e+06
1.08473e+06
1.09848e+06
1.10156e+06
1.10235e+06
1.10259e+06
1.10267e+06
1.1027e+06
1.10272e+06
1.10272e+06
1.10273e+06
1.10273e+06
1.10273e+06
1.10273e+06
1.10273e+06
1.10273e+06
1.10273e+06
1.10273e+06
1.10273e+06
1.10273e+06
1.10273e+06
1.10274e+06
1.10274e+06
1.10274e+06
1.10274e+06
1.10274e+06
1.10274e+06
1.10274e+06
1.10274e+06
1.10274e+06
1.10275e+06
1.10275e+06
1.10275e+06
1.10276e+06
1.10277e+06
1.10278e+06
1.10279e+06
1.10283e+06
1.10288e+06
1.10299e+06
1.10324e+06
1.10381e+06
1.10532e+06
1.10992e+06
1.12605e+06
1.19193e+06
1.50336e+06
3.24975e+06
1.79872e+07
228565
430979
496262
516075
522230
524266
524997
525284
525407
525464
525492
525507
525515
525520
525523
525525
525527
525528
525528
525529
525530
525531
525532
525532
525534
525535
525536
525538
525541
525544
525548
525553
525561
525573
525590
525616
525659
525730
525855
526087
526538
527477
529578
534676
548189
587443
712736
1.16001e+06
3.12318e+06
1.79872e+07
96082.8
214048
266501
287521
295774
299080
300462
301070
301354
301494
301567
301606
301629
301642
301651
301656
301660
301662
301665
301666
301668
301669
301671
301673
301675
301677
301680
301684
301690
301697
301708
301722
301743
301774
301820
301893
302011
302206
302543
303149
304288
306542
311251
321677
346217
407822
574725
1.08476e+06
3.10621e+06
1.79872e+07
47893.7
118581
157741
176958
185965
190161
192148
193116
193605
193862
194002
194082
194129
194157
194175
194187
194195
194201
194205
194208
194211
194214
194217
194221
194225
194230
194237
194246
194257
194273
194295
194327
194373
194440
194542
194699
194949
195356
196043
197237
199393
203438
211347
227494
262028
340001
530298
1.06583e+06
3.10319e+06
1.79872e+07
27068.7
71364.2
99948.5
116249
125013
129619
132039
133327
134027
134417
134641
134773
134854
134904
134936
134958
134973
134983
134991
134998
135004
135009
135015
135021
135029
135039
135051
135067
135089
135119
135161
135220
135306
135430
135617
135901
136344
137051
138209
140158
143534
149562
160675
181884
224022
312385
514657
1.06034e+06
3.10247e+06
1.79872e+07
16747
45808.9
66729.6
80065.1
88046.1
92673.1
95324.7
96846.9
97729.9
98250.3
98563.1
98755.1
98875.7
98953.2
99004.3
99038.9
99063.1
99080.7
99094.2
99105.1
99114.8
99124.1
99133.9
99144.9
99158
99174.4
99195.5
99223.3
99260.6
99311.3
99381.6
99480.2
99620.9
99824.7
100125
100576
101265
102340
104052
106839
111486
119424
133348
158531
205907
300418
508648
1.0585e+06
3.10225e+06
1.79872e+07
11084.2
31037.1
46489.4
57220.8
64215
68608.6
71317.6
72978
73998.2
74630.6
75027.6
75280.6
75444.7
75553.2
75626.4
75677
75713.1
75739.7
75760.3
75777.3
75792.4
75807
75822.4
75839.8
75860.5
75886.3
75919.4
75962.7
76020.6
76099
76206.7
76356.6
76568.1
76870.8
77310.3
77958.5
78930.1
80410.8
82707.7
86336.2
92180
101790
117975
146057
196849
294901
506126
1.0578e+06
3.10217e+06
1.79872e+07
7721.3
21950.8
33548.6
42153.3
48155.5
52182.5
54823.5
56536.1
57643.5
58361.7
58830.9
59140.8
59348.1
59488.9
59586.2
59655
59704.9
59742.4
59771.8
59796.4
59818.5
59840
59862.7
59888.4
59919
59956.9
60005.4
60068.6
60152.5
60265.2
60418.8
60630.4
60925.5
61342.4
61938.7
62803.2
64073.8
65968.3
68835.3
73242.3
80131.5
91107.9
109006
139105
192068
292158
504945
1.05749e+06
3.10214e+06
1.79872e+07
5598.6
16075.1
24925.6
31859.8
36960.2
40571.8
43066.7
44765.3
45914
46690
47215.9
47574.8
47822
47994.5
48116.5
48204.6
48269.7
48319.5
48359.3
48392.9
48423.5
48453.5
48485.3
48521.2
48563.9
48616.8
48683.9
48771
48885.7
49038.6
49245
49526.4
49914.5
50455.2
51217.3
52303.6
53870.9
56160.1
59547.9
64631.6
72380.3
84411.8
103545
134998
189312
290591
504248
1.05728e+06
3.10211e+06
1.79872e+07
4194.94
12125.3
19013.5
24626.8
28942.4
32139
34446.9
36086
37238.9
38046.7
38612.8
39011
39293
39494.7
39640.7
39748.3
39829.5
39892.6
39943.8
39987.8
40028.2
40068.1
40110.6
40158.6
40215.6
40285.8
40374.5
40488.9
40638.4
40836.1
41100.4
41457.1
41943
42611.2
43539.3
44841.3
46687
49332.7
53170.4
58810.4
67226.7
80026.2
99996.1
132298
187399
289337
503508
1.05693e+06
3.10203e+06
1.79872e+07
3231.73
9380.95
14837.1
19417.4
23070.6
25880.5
27987
29538.5
30668.5
31486.5
32077.4
32504.8
32815.4
33042.8
33211.2
33337.7
33434.9
33511.9
33575.4
33630.7
33682
33733.2
33787.7
33849.4
33922.5
34012.1
34124.9
34269.1
34456.4
34701.9
35027.1
35461.3
36045.9
36839.8
37926.9
39429
41524
44475.7
48681.8
54753.6
63655.6
76963.9
97424.9
130142
185529
287610
501890
1.05565e+06
3.10147e+06
1.79872e+07
2550.78
7421.12
11813.1
15583.6
18689.9
21154.3
23061.6
24511.6
25600.4
26411.9
27014.4
27461.6
27794.4
28043.6
28231.9
28376.2
28489.1
28580
28656.2
28723.4
28786.6
28849.9
28917.6
28994.3
29084.9
29195.5
29333.9
29509.8
29736.5
30031.3
30418
30929.2
31609.8
32522.8
33756.5
35437
37745.5
40947.4
45437.9
51821.3
61047.9
74628.4
95255.3
127936
182949
284173
497100
1.0496e+06
3.09626e+06
1.79872e+07
2057.7
5989.96
9580.46
12719.6
15372.5
17534.5
19254.5
20598.5
21635.5
22428.7
23032.4
23491.1
23840.1
24106.8
24312.3
24472.8
24600.6
24705.1
24794.1
24873.6
24949
25025.1
25106.9
25199.3
25308.4
25441
25605.9
25814.3
26080.8
26424.7
26871.7
27457
28228
29250.3
30614.7
32448.7
34933.2
38329.2
43021.9
49601.6
59038.3
72669.3
93147.7
125274
178906
276992
482934
1.0205e+06
3.04088e+06
1.79872e+07
1693.86
4926.1
7905.87
10550.5
12828.9
14730.9
16280.6
17521
18501
19268.3
19865.5
20329
20688.9
20969.3
21189.3
21364.1
21505.6
21623.1
21724.6
21816.4
21904.2
21993.5
22089.6
22198.3
22326.1
22481
22672.7
22913.4
23219
23610.3
24114.9
24769.4
25623.1
26743.1
28220.9
30183.5
32808.5
36348.2
41166.7
47793.7
54451.7
67521.9
85759.1
113790
159311
239312
397207
770854
2.00888e+06
1.20425e+07
1421.48
4124.25
6633.99
8888.55
10858.6
12540.9
13939.9
15083.2
16005.6
16742.8
17328.2
17791.5
18157.9
18448.4
18680.3
18867.5
19021.3
19151
19264.3
19368.1
19468.2
19570.6
19681
19805.9
19952.4
20129.3
20347.1
20619
20962.1
21398.2
21956.2
22673.8
23601.4
24806.5
26380.4
28448.5
31184.2
34832.9
39748.2
46456.5
53155.7
66014.2
83943.4
111251
155227
231981
383209
747001
2.01428e+06
1.24056e+07
1215.45
3513.87
5659.49
7605.82
9327.64
10822.2
12089.4
13144.3
14011.3
14717
15287.6
15747
16116.5
16414.3
16655.6
16853.2
17018
17158.7
17283.2
17398.2
17510.2
17625.2
17749.6
17890.2
18054.8
18252.8
18495.4
18796.8
19174.8
19652.1
20258.4
21032.2
22024.2
23301.9
24955.7
27108.3
29929.4
33657.1
38634.7
45372.2
52088.2
64724.3
82350.9
109029
151797
226407
373583
730625
1.98883e+06
1.23851e+07
1058.65
3046.59
4909.28
6612.15
8134.25
9470.63
10624.9
11601.7
12417.5
13092.3
13646.7
14100
14470.1
14772.7
15021.3
15227.7
15401.8
15552.4
15687
15812.6
15935.6
16062.5
16200
16355.4
16537.1
16754.8
17020.4
17348.9
17758.5
18272.8
18921.8
19744.5
20791.6
22129.8
23848.3
26067.3
28952
32734
37746.4
44484
51192.8
63618.3
80960.2
107071
148645
233620
388250
766368
2.12092e+06
1.69428e+07
939.187
2688.62
4331.81
5843.23
7205.74
8413.1
9470.16
10379.3
11149.4
11795.6
12333.8
12779.9
13148.9
13454.5
13708.6
13922.1
14104.2
14263.3
14406.9
14542
14675
14812.9
14962.4
15131.4
15328.5
15564
15850.5
16203
16640.6
17187.2
17873.1
18737.3
19830.2
21217.8
22987.6
25257.2
28187.5
32004
37030.5
43748.3
50432.1
62659.9
79740.3
105375
146089
229153
379509
745795
2.07415e+06
1.69162e+07
848.667
2415.99
3890.21
5252.64
6489.28
7594.06
8568.9
9420.36
10151.4
10772.1
11295.2
11734
12101
12408.2
12666.5
12885.5
13074.3
13240.6
13392
13535.3
13677.2
13824.6
13984.8
14165.7
14376.5
14627.7
14932.2
15305.6
15767.2
16341.1
17057.9
17956.4
19086.5
20513.4
22322.7
24629.6
27590.9
31426.3
36451.2
43134.5
49778.7
61815.1
78644.4
103856
143874
225589
373930
737724
2.06685e+06
1.69155e+07
781.112
2211.61
3558.02
4806.76
5946.34
6971.15
7881.46
8683.62
9381.79
9980.97
10491.1
10923
11287.7
11595.7
11856.9
12080.3
12274.3
12446.6
12604.4
12754.6
12903.9
13059.5
13228.7
13419.8
13642
13906.4
14226
14616.7
15098.1
15694.4
16436.2
17362
18521.3
19978.3
21817.1
24150.3
27131.1
30973.8
35985.8
42623.8
49217.9
61056.2
77617.1
102376
141636
221715
367214
723760
2.02442e+06
1.67945e+07
732.282
2063.3
3316.31
4481.38
5548.94
6513.89
7375.84
8138.7
8809.8
9392.06
9891.69
10318
10680.5
10988.8
11252
11478.7
11676.7
11853.6
12016.4
12172.1
12327.4
12489.4
12665.9
12865
13096.4
13371.3
13702.8
14107.2
14604
15217.7
15978.6
16925.2
18106.4
19585.5
21445.3
23796
26787.8
30630
35622.5
42209.6
48751.3
60374.7
76631.8
100838
139074
216554
356827
696602
2.07529e+06
1.19258e+07
699.23
1962.58
3151.82
4259.46
5277.28
6200.6
7028.74
7764.58
8414.09
8983.57
9475.89
9898.06
10258.9
10567.3
10831.9
11060.8
11261.6
11441.8
11608.2
11767.8
11927.5
12094.3
12276
12481
12719.1
13001.6
13341.8
13756
14263.9
14889.9
15664.4
16625.6
17822
19316.1
21189.7
23551.3
26548.4
30386.2
35358.1
41897
48397.4
59794.3
75728.1
99291.1
136178
209785
341297
658626
1.98777e+06
1.18219e+07
679.817
1903.25
3054.74
4128.29
5116.45
6014.84
6822.62
7542.23
8178.73
8738.98
9226.89
9646.74
10006.6
10315
10580.4
10810.5
11013.1
11195.3
11364
11526
11688.3
11858.1
12043
12251.7
12493.9
12781.1
13126.6
13546.8
14061.5
14695.1
15477.8
16447.8
17653.2
19156.2
21037.6
23405.1
26404.3
30237.5
35193.5
41696.7
48182
59368.1
75020.6
97976.3
133442
202510
320406
583987
1.29137e+06
5.51137e+06
673.476
1883.74
3022.74
4084.96
5063.26
5953.32
6754.29
7468.46
8100.63
8657.36
9143.8
9562.99
9922.52
10231
10496.5
10727.2
10930.3
11113.1
11282.6
11445.4
11608.7
11779.4
11965.4
12175.4
12419
12707.7
13055.1
13477.3
13994.3
14630.4
15415.9
16388.7
17597.2
19103.1
20987.1
23356.4
26356.1
30187.4
35137.4
41627.3
48137.8
59165
74669.4
97288
131904
198512
306999
524183
966411
1.97544e+06
680.037
1903.57
3055.08
4128.6
5116.73
6015.07
6822.81
7542.38
8178.82
8739.02
9226.94
9646.8
10006.6
10315.1
10580.4
10810.6
11013.2
11195.3
11364
11526
11688.3
11858.1
12043
12251.7
12493.9
12781
13126.6
13546.8
14061.5
14695.1
15477.8
16447.7
17653.2
19156.1
21037.6
23405.1
26404.3
30237.5
35193.5
41696.7
48271.9
59233.9
74789.7
97526.5
132445
201014
315525
563026
1.22951e+06
4.58225e+06
699.663
1963.2
3152.46
4260.07
5277.81
6201.05
7029.09
7764.84
8414.23
8983.68
9476.01
9898.18
10259
10567.4
10832
11060.8
11261.7
11441.8
11608.3
11767.9
11927.5
12094.3
12276
12481
12719.1
13001.5
13341.8
13755.9
14263.9
14889.9
15664.4
16625.6
17822
19316.1
21189.6
23551.2
26548.4
30386.2
35358.1
41897
48561.2
59558.4
75341.4
98584.1
134739
207923
336383
643629
1.6392e+06
1.17233e+07
732.913
2064.18
3317.23
4482.23
5549.67
6514.49
7376.3
8139.01
8809.98
9392.23
9891.86
10318.1
10680.6
10989
11252.2
11478.8
11676.8
11853.7
12016.5
12172.1
12327.4
12489.5
12665.9
12865
13096.4
13371.2
13702.8
14107.1
14603.9
15217.6
15978.5
16925.1
18106.4
19585.4
21445.2
23795.9
26787.8
30630
35622.5
42209.5
48975
60068.9
76164
100055
137650
215010
353535
689265
1.74965e+06
1.19199e+07
781.913
2212.72
3559.16
4807.79
5947.21
6971.86
7881.98
8683.91
9382.03
9981.2
10491.3
10923.2
11287.9
11595.9
11857
12080.4
12274.4
12446.7
12604.4
12754.6
12904
13059.5
13228.7
13419.7
13642
13906.3
14225.9
14616.6
15098
15694.3
16436
17361.9
18521.2
19978.2
21817
24150.2
27131.1
30973.7
35985.8
42623.8
49489.9
60705
77118.6
101615
140405
220572
364991
717743
1.99366e+06
1.63316e+07
849.607
2417.28
3891.5
5253.79
6490.24
7594.8
8569.39
9420.7
10151.7
10772.3
11295.5
11734.2
12101.2
12408.4
12666.6
12885.7
13074.4
13240.7
13392.1
13535.3
13677.2
13824.6
13984.8
14165.7
14376.4
14627.6
14932.1
15305.5
15767
16341
17057.8
17956.2
19086.4
20513.2
22322.6
24629.5
27590.8
31426.2
36451.2
43134.5
50095.8
61426
78125
103119
142781
224699
372509
735368
2.06315e+06
1.69144e+07
940.231
2690.02
4333.18
5844.43
7206.7
8413.81
9470.65
10379.7
11149.8
11795.9
12334
12780.1
13149.1
13454.7
13708.8
13922.2
14104.3
14263.4
14407
14542
14675.1
14812.9
14962.4
15131.3
15328.4
15563.9
15850.3
16202.9
16640.5
17187
17872.9
18737.1
19830
21217.7
22987.5
25257.1
28187.5
32003.9
37030.5
43748.3
50799.9
62225.2
79180.5
104602
144961
228222
377986
743458
2.07207e+06
1.69161e+07
1059.76
3048.05
4910.69
6613.34
8135.16
9471.22
10625.4
11602.1
12417.8
13092.6
13647
14100.3
14470.3
14772.9
15021.5
15227.8
15401.9
15552.5
15687.1
15812.6
15935.6
16062.5
16200
16355.4
16537
16754.7
17020.3
17348.7
17758.3
18272.6
18921.7
19744.3
20791.4
22129.7
23848.2
26067.2
28951.9
32733.9
37746.4
44483.9
51623.7
63122.7
80331.2
106193
147304
232373
385575
758732
2.09668e+06
1.69197e+07
1216.59
3515.33
5660.86
7606.94
9328.46
10822.8
12089.9
13144.7
14011.6
14717.3
15287.8
15747.2
16116.7
16414.4
16655.7
16853.4
17018
17158.8
17283.2
17398.3
17510.2
17625.2
17749.5
17890.1
18054.7
18252.7
18495.3
18796.7
19174.6
19652
20258.2
21032
22024.1
23301.8
24955.5
27108.2
29929.3
33657
38634.6
45372.2
52599.2
64150.6
81632.2
108019
150204
223881
368223
716062
1.93327e+06
1.21638e+07
1422.61
4125.65
6635.26
8889.54
10859.3
12541.5
13940.3
15083.5
16005.9
16743
17328.4
17791.7
18158
18448.6
18680.4
18867.6
19021.4
19151
19264.4
19368.1
19468.2
19570.5
19681
19805.8
19952.4
20129.2
20347
20618.9
20962
21398.1
21956.1
22673.7
23601.2
24806.3
26380.3
28448.3
31184.1
34832.8
39748.1
46456.5
53771.5
65343.9
83120
110103
153453
229076
378374
739918
2.0077e+06
1.24058e+07
1694.95
4927.4
7907
10551.4
12829.4
14731.4
16280.9
17521.3
18501.3
19268.5
19865.6
20329.1
20689
20969.4
21189.4
21364.2
21505.6
21623.2
21724.6
21816.4
21904.2
21993.5
22089.5
22198.2
22326.1
22481
22672.6
22913.3
23218.9
23610.2
24114.8
24769.3
25623
26742.9
28220.8
30183.4
32808.4
36348.2
41166.7
47793.6
55227.7
66739.6
84823.8
112482
157175
235336
389116
755707
2.01693e+06
1.23779e+07
2058.71
5991.12
9581.42
12720.3
15372.9
17534.9
19254.7
20598.8
21635.7
22428.8
23032.5
23491.2
23840.2
24106.9
24312.4
24472.9
24600.6
24705.2
24794.1
24873.6
24949
25025.1
25106.9
25199.3
25308.3
25440.9
25605.8
25814.2
26080.7
26424.5
26871.6
27456.8
28227.9
29250.1
30614.6
32448.6
34933.1
38329.1
43021.9
49601.6
59038.3
72669.3
93147.7
125274
178906
276992
482934
1.0205e+06
3.04088e+06
1.79872e+07
2551.69
7422.11
11813.8
15584
18690.2
21154.5
23061.8
24511.7
25600.6
26412
27014.5
27461.7
27794.5
28043.6
28231.9
28376.2
28489.1
28580
28656.2
28723.4
28786.5
28849.9
28917.6
28994.2
29084.8
29195.5
29333.8
29509.8
29736.4
30031.2
30417.9
30929.1
31609.7
32522.7
33756.4
35436.9
37745.4
40947.3
45437.8
51821.3
61047.8
74628.4
95255.3
127936
182949
284173
497100
1.0496e+06
3.09626e+06
1.79872e+07
3232.52
9381.75
14837.7
19417.8
23070.8
25880.6
27987.1
29538.6
30668.6
31486.5
32077.4
32504.8
32815.4
33042.8
33211.2
33337.7
33435
33511.9
33575.4
33630.7
33682
33733.2
33787.7
33849.4
33922.5
34012.1
34124.8
34269.1
34456.3
34701.9
35027
35461.2
36045.9
36839.7
37926.9
39429
41523.9
44475.7
48681.8
54753.6
63655.6
76963.9
97424.9
130142
185529
287610
501890
1.05565e+06
3.10147e+06
1.79872e+07
4195.58
12125.9
19013.8
24627
28942.5
32139
34447
36086
37238.9
38046.7
38612.8
39011
39293
39494.7
39640.7
39748.3
39829.5
39892.6
39943.8
39987.8
40028.2
40068.1
40110.5
40158.5
40215.5
40285.7
40374.5
40488.8
40638.3
40836.1
41100.4
41457
41942.9
42611.2
43539.3
44841.3
46687
49332.7
53170.3
58810.4
67226.7
80026.2
99996.1
132298
187399
289337
503508
1.05694e+06
3.10203e+06
1.79872e+07
5599.09
16075.4
24925.8
31859.8
36960.2
40571.7
43066.7
44765.3
45914
46690
47215.9
47574.8
47822
47994.4
48116.5
48204.6
48269.7
48319.5
48359.3
48392.9
48423.5
48453.5
48485.3
48521.2
48563.9
48616.7
48683.9
48771
48885.6
49038.6
49245
49526.4
49914.4
50455.2
51217.2
52303.6
53870.8
56160.1
59547.9
64631.6
72380.2
84411.8
103545
134998
189312
290591
504248
1.05728e+06
3.10211e+06
1.79872e+07
7721.6
21950.8
33548.4
42153.2
48155.3
52182.4
54823.4
56536
57643.4
58361.6
58830.9
59140.7
59348
59488.8
59586.2
59655
59704.9
59742.3
59771.8
59796.4
59818.5
59840
59862.7
59888.4
59919
59956.9
60005.4
60068.6
60152.5
60265.2
60418.8
60630.4
60925.5
61342.4
61938.7
62803.2
64073.8
65968.3
68835.3
73242.3
80131.5
91107.9
109006
139105
192068
292158
504945
1.05749e+06
3.10214e+06
1.79872e+07
11084.2
31036.6
46488.9
57220.5
64214.8
68608.4
71317.5
72977.9
73998.2
74630.6
75027.5
75280.5
75444.7
75553.1
75626.4
75677
75713.1
75739.7
75760.3
75777.3
75792.4
75807
75822.4
75839.8
75860.5
75886.3
75919.4
75962.7
76020.6
76099
76206.7
76356.6
76568.1
76870.8
77310.3
77958.5
78930.1
80410.8
82707.7
86336.2
92180
101790
117975
146057
196849
294901
506126
1.0578e+06
3.10217e+06
1.79872e+07
16746.6
45807.5
66728.7
80064.5
88045.8
92672.9
95324.6
96846.8
97729.8
98250.3
98563
98755.1
98875.7
98953.2
99004.3
99038.9
99063.1
99080.7
99094.2
99105.1
99114.8
99124.1
99133.9
99144.9
99158
99174.4
99195.5
99223.3
99260.6
99311.3
99381.6
99480.2
99620.9
99824.8
100125
100576
101265
102340
104052
106839
111486
119424
133348
158531
205907
300418
508648
1.0585e+06
3.10225e+06
1.79872e+07
27067.8
71360.2
99947
116248
125012
129619
132039
133327
134027
134417
134641
134773
134854
134904
134936
134958
134973
134983
134991
134998
135004
135009
135015
135021
135029
135039
135051
135067
135089
135119
135161
135220
135306
135430
135617
135901
136344
137051
138209
140158
143534
149562
160675
181884
224022
312385
514657
1.06034e+06
3.10247e+06
1.79872e+07
47893.3
118580
157740
176958
185965
190161
192147
193116
193605
193862
194002
194082
194129
194157
194175
194187
194195
194201
194205
194208
194211
194214
194217
194221
194225
194230
194237
194246
194257
194273
194295
194327
194373
194440
194542
194699
194949
195356
196043
197237
199393
203438
211347
227494
262028
340001
530298
1.06583e+06
3.10319e+06
1.79872e+07
96082.6
214048
266500
287520
295773
299080
300462
301070
301354
301494
301566
301606
301629
301642
301651
301656
301660
301662
301665
301666
301668
301669
301671
301673
301675
301677
301680
301685
301690
301697
301708
301722
301743
301774
301820
301893
302011
302206
302543
303149
304288
306542
311251
321677
346217
407822
574725
1.08476e+06
3.10621e+06
1.79872e+07
228565
430979
496262
516075
522230
524266
524997
525284
525407
525464
525492
525507
525515
525520
525523
525525
525527
525528
525528
525529
525530
525531
525532
525532
525534
525535
525536
525538
525541
525544
525548
525553
525561
525573
525590
525616
525659
525730
525855
526087
526538
527477
529578
534676
548189
587443
712736
1.16001e+06
3.12318e+06
1.79872e+07
679337
1.01711e+06
1.08473e+06
1.09848e+06
1.10156e+06
1.10235e+06
1.10259e+06
1.10267e+06
1.1027e+06
1.10272e+06
1.10272e+06
1.10273e+06
1.10273e+06
1.10273e+06
1.10273e+06
1.10273e+06
1.10273e+06
1.10273e+06
1.10273e+06
1.10273e+06
1.10273e+06
1.10273e+06
1.10274e+06
1.10274e+06
1.10274e+06
1.10274e+06
1.10274e+06
1.10274e+06
1.10274e+06
1.10274e+06
1.10274e+06
1.10275e+06
1.10275e+06
1.10275e+06
1.10276e+06
1.10277e+06
1.10278e+06
1.10279e+06
1.10283e+06
1.10288e+06
1.10299e+06
1.10324e+06
1.10381e+06
1.10532e+06
1.10992e+06
1.12605e+06
1.19193e+06
1.50336e+06
3.24975e+06
1.79872e+07
2.70002e+06
3.18573e+06
3.23008e+06
3.23475e+06
3.23538e+06
3.23549e+06
3.23552e+06
3.23553e+06
3.23554e+06
3.23554e+06
3.23554e+06
3.23554e+06
3.23554e+06
3.23554e+06
3.23554e+06
3.23554e+06
3.23554e+06
3.23554e+06
3.23554e+06
3.23555e+06
3.23555e+06
3.23555e+06
3.23555e+06
3.23555e+06
3.23555e+06
3.23555e+06
3.23555e+06
3.23556e+06
3.23556e+06
3.23556e+06
3.23556e+06
3.23556e+06
3.23557e+06
3.23557e+06
3.23557e+06
3.23558e+06
3.23558e+06
3.23559e+06
3.23559e+06
3.2356e+06
3.23562e+06
3.23565e+06
3.23571e+06
3.23589e+06
3.23648e+06
3.23896e+06
3.2531e+06
3.36215e+06
4.4313e+06
1.79872e+07
1.87595e+07
1.87595e+07
1.87595e+07
1.87595e+07
1.87595e+07
1.87595e+07
1.87595e+07
1.87595e+07
1.87595e+07
1.87595e+07
1.87595e+07
1.87595e+07
1.87595e+07
1.87595e+07
1.87595e+07
1.87595e+07
1.87595e+07
1.87595e+07
1.87595e+07
1.87595e+07
1.87595e+07
1.87595e+07
1.87595e+07
1.87595e+07
1.87595e+07
1.87595e+07
1.87595e+07
1.87595e+07
1.87595e+07
1.87595e+07
1.87595e+07
1.87595e+07
1.87595e+07
1.87595e+07
1.87595e+07
1.87595e+07
1.87595e+07
1.87595e+07
1.87595e+07
1.87595e+07
1.87595e+07
1.87595e+07
1.87595e+07
1.87595e+07
1.87595e+07
1.87595e+07
1.87595e+07
1.87595e+07
1.87595e+07
1.87595e+07
6.64502e+07
6.76664e+07
6.76661e+07
6.76638e+07
6.75367e+07
6.76646e+07
6.76675e+07
6.76667e+07
6.76661e+07
6.7666e+07
6.7666e+07
6.7666e+07
6.7666e+07
6.7666e+07
6.7666e+07
6.7666e+07
6.7666e+07
6.7666e+07
6.7666e+07
6.76636e+07
3.10458e+06
3.316e+06
3.32434e+06
3.32421e+06
3.31676e+06
3.29232e+06
3.31559e+06
3.3207e+06
3.32426e+06
3.32455e+06
3.32456e+06
3.32456e+06
3.32456e+06
3.32456e+06
3.32456e+06
3.32456e+06
3.32455e+06
3.32449e+06
3.3223e+06
3.25298e+06
1.1573e+07
1.19501e+07
1.19517e+07
1.19516e+07
1.19463e+07
1.19413e+07
1.19582e+07
1.19524e+07
1.19518e+07
1.19517e+07
1.19517e+07
1.19517e+07
1.19517e+07
1.19517e+07
1.19517e+07
1.19517e+07
1.19517e+07
1.19517e+07
1.19512e+07
1.19092e+07
1.87595e+07
1.87595e+07
1.87595e+07
1.87595e+07
1.87595e+07
1.87595e+07
1.87595e+07
1.87595e+07
1.87595e+07
1.87595e+07
1.87595e+07
1.87595e+07
1.87595e+07
1.87595e+07
1.87595e+07
1.87595e+07
1.87595e+07
1.87595e+07
1.87595e+07
1.87595e+07
1.87595e+07
1.87595e+07
1.87595e+07
1.87595e+07
1.87595e+07
1.87595e+07
1.87595e+07
1.87595e+07
1.87595e+07
1.87595e+07
1.87595e+07
1.87595e+07
1.87595e+07
1.87595e+07
1.87595e+07
1.87595e+07
1.87595e+07
1.87595e+07
1.87595e+07
1.87595e+07
1.87595e+07
1.87595e+07
1.87595e+07
1.87595e+07
1.87595e+07
1.87595e+07
1.87595e+07
1.87595e+07
1.87595e+07
1.87595e+07
1.87595e+07
1.87595e+07
1.87595e+07
1.87595e+07
1.87595e+07
1.87595e+07
1.87595e+07
1.87595e+07
1.87595e+07
1.87595e+07
1.87595e+07
1.87595e+07
1.87595e+07
1.87595e+07
1.87595e+07
1.87595e+07
1.87595e+07
1.87595e+07
1.87595e+07
1.87595e+07
1.87595e+07
1.87595e+07
1.87595e+07
1.87595e+07
1.87595e+07
1.87595e+07
1.87595e+07
1.87595e+07
1.87595e+07
1.87595e+07
1.87595e+07
1.87595e+07
1.87595e+07
1.87595e+07
1.87595e+07
1.87595e+07
1.87595e+07
1.87595e+07
1.87595e+07
1.87595e+07
1.87595e+07
1.87595e+07
1.87595e+07
1.87595e+07
1.87595e+07
1.87595e+07
1.87595e+07
1.87595e+07
1.87595e+07
1.87595e+07
1.79872e+07
4.4313e+06
3.36207e+06
3.25301e+06
3.23887e+06
3.23639e+06
3.23581e+06
3.23563e+06
3.23557e+06
3.23555e+06
3.23554e+06
3.23553e+06
3.23553e+06
3.23553e+06
3.23553e+06
3.23553e+06
3.23553e+06
3.23553e+06
3.23553e+06
3.23553e+06
3.23553e+06
3.23553e+06
3.23553e+06
3.23553e+06
3.23554e+06
3.23554e+06
3.23554e+06
3.23554e+06
3.23554e+06
3.23554e+06
3.23554e+06
3.23554e+06
3.23554e+06
3.23554e+06
3.23554e+06
3.23554e+06
3.23554e+06
3.23554e+06
3.23554e+06
3.23554e+06
3.23554e+06
3.23554e+06
3.23554e+06
3.23554e+06
3.23554e+06
3.23554e+06
3.23554e+06
3.23554e+06
3.23554e+06
3.23554e+06
3.23554e+06
3.23554e+06
3.23554e+06
3.23554e+06
3.23554e+06
3.23554e+06
3.23554e+06
3.23554e+06
3.23554e+06
3.23554e+06
3.23554e+06
3.23554e+06
3.23554e+06
3.23554e+06
3.23554e+06
3.23554e+06
3.23554e+06
3.23554e+06
3.23554e+06
3.23554e+06
3.23554e+06
3.23554e+06
3.23554e+06
3.23554e+06
3.23554e+06
3.23554e+06
3.23554e+06
3.23554e+06
3.23554e+06
3.23554e+06
3.23554e+06
3.23554e+06
3.23554e+06
3.23554e+06
3.23554e+06
3.23554e+06
3.23554e+06
3.23554e+06
3.23554e+06
3.23554e+06
3.23554e+06
3.23554e+06
3.23554e+06
3.23554e+06
3.23554e+06
3.23554e+06
3.23554e+06
3.23554e+06
3.23554e+06
3.23554e+06
1.79872e+07
3.24983e+06
1.50336e+06
1.19189e+06
1.126e+06
1.10987e+06
1.10527e+06
1.10375e+06
1.10319e+06
1.10295e+06
1.10284e+06
1.10278e+06
1.10276e+06
1.10274e+06
1.10273e+06
1.10273e+06
1.10273e+06
1.10273e+06
1.10273e+06
1.10273e+06
1.10273e+06
1.10273e+06
1.10273e+06
1.10273e+06
1.10273e+06
1.10273e+06
1.10273e+06
1.10273e+06
1.10273e+06
1.10273e+06
1.10273e+06
1.10273e+06
1.10273e+06
1.10273e+06
1.10273e+06
1.10273e+06
1.10273e+06
1.10273e+06
1.10273e+06
1.10273e+06
1.10273e+06
1.10273e+06
1.10273e+06
1.10273e+06
1.10273e+06
1.10273e+06
1.10273e+06
1.10273e+06
1.10273e+06
1.10273e+06
1.10273e+06
1.10273e+06
1.10273e+06
1.10273e+06
1.10273e+06
1.10273e+06
1.10273e+06
1.10273e+06
1.10273e+06
1.10273e+06
1.10273e+06
1.10273e+06
1.10273e+06
1.10273e+06
1.10273e+06
1.10273e+06
1.10273e+06
1.10273e+06
1.10273e+06
1.10273e+06
1.10273e+06
1.10273e+06
1.10273e+06
1.10273e+06
1.10273e+06
1.10273e+06
1.10273e+06
1.10273e+06
1.10273e+06
1.10273e+06
1.10273e+06
1.10273e+06
1.10273e+06
1.10273e+06
1.10273e+06
1.10273e+06
1.10273e+06
1.10273e+06
1.10273e+06
1.10273e+06
1.10273e+06
1.10273e+06
1.10273e+06
1.10273e+06
1.10273e+06
1.10273e+06
1.10273e+06
1.10273e+06
1.10273e+06
1.10273e+06
1.79872e+07
3.12328e+06
1.16005e+06
712737
587420
548152
534633
529533
527433
526495
526046
525818
525695
525627
525587
525563
525549
525540
525534
525531
525529
525527
525526
525526
525526
525525
525525
525526
525526
525526
525526
525526
525526
525526
525526
525526
525526
525526
525527
525527
525527
525527
525527
525527
525527
525527
525527
525527
525527
525527
525527
525527
525527
525527
525527
525527
525527
525527
525527
525527
525527
525527
525527
525527
525527
525527
525527
525527
525527
525527
525527
525527
525527
525527
525527
525527
525527
525527
525527
525527
525527
525527
525527
525527
525527
525527
525527
525527
525527
525527
525527
525527
525527
525527
525527
525527
525527
525527
525527
525527
1.79872e+07
3.10632e+06
1.08482e+06
574754
407825
346201
321649
311217
306506
304251
303113
302509
302175
301982
301868
301797
301753
301725
301706
301694
301685
301680
301676
301673
301671
301669
301668
301668
301667
301667
301666
301666
301666
301666
301666
301665
301665
301665
301665
301665
301665
301665
301665
301665
301665
301665
301665
301665
301665
301665
301665
301665
301665
301665
301665
301665
301665
301665
301665
301665
301665
301665
301665
301665
301665
301665
301665
301665
301665
301665
301665
301665
301665
301665
301665
301665
301665
301665
301665
301665
301665
301665
301665
301665
301665
301665
301665
301665
301665
301665
301665
301665
301665
301665
301665
301665
301665
301665
301665
301665
1.79872e+07
3.1033e+06
1.0659e+06
530346
340027
262034
227485
211327
203413
199365
197209
196016
195331
194926
194679
194525
194426
194361
194317
194288
194268
194253
194243
194236
194230
194226
194223
194220
194218
194217
194215
194214
194213
194213
194212
194212
194211
194211
194211
194211
194210
194210
194210
194210
194210
194210
194210
194210
194210
194209
194209
194209
194209
194209
194209
194209
194209
194209
194209
194209
194209
194209
194209
194209
194209
194209
194209
194208
194208
194208
194208
194208
194208
194208
194208
194208
194208
194208
194208
194208
194208
194208
194208
194208
194208
194208
194208
194208
194208
194208
194208
194208
194208
194208
194208
194208
194208
194208
194208
194209
1.79872e+07
3.10259e+06
1.06042e+06
514717
312429
224048
181894
160673
149552
143520
140142
138193
137037
136332
135892
135610
135427
135305
135222
135165
135125
135097
135076
135060
135049
135040
135033
135027
135023
135019
135017
135014
135012
135011
135009
135008
135007
135006
135006
135005
135005
135004
135004
135004
135003
135003
135003
135003
135003
135002
135002
135002
135002
135002
135002
135002
135002
135001
135001
135001
135001
135001
135001
135001
135001
135001
135001
135001
135001
135001
135001
135001
135001
135001
135001
135001
135000
135000
135000
135000
135000
135000
135000
135001
135001
135001
135001
135001
135001
135001
135001
135001
135001
135001
135001
135001
135001
135001
135001
135001
1.79872e+07
3.10238e+06
1.05859e+06
508719
300476
205950
158560
133365
119432
111489
106839
104051
102341
101269
100583
100136
99839.4
99638.8
99500.8
99404.3
99335.7
99286.1
99249.5
99222.1
99201.3
99185.1
99172.3
99162.2
99154
99147.3
99141.8
99137.3
99133.6
99130.5
99127.9
99125.7
99123.9
99122.3
99121.1
99120
99119
99118.2
99117.5
99116.9
99116.4
99115.9
99115.6
99115.2
99115
99114.7
99114.5
99114.3
99114.1
99113.9
99113.7
99113.5
99113.3
99113.1
99112.9
99112.7
99112.6
99112.4
99112.3
99112.2
99112.1
99112
99111.9
99111.9
99111.8
99111.8
99111.7
99111.7
99111.7
99111.6
99111.6
99111.6
99111.6
99111.6
99111.6
99111.6
99111.6
99111.6
99111.6
99111.6
99111.6
99111.6
99111.6
99111.6
99111.7
99111.7
99111.7
99111.7
99111.7
99111.7
99111.8
99111.8
99111.8
99111.8
99111.8
99111.8
1.79872e+07
3.10231e+06
1.05789e+06
506205
294970
196907
146102
118010