/*--------------------------------*- C++ -*----------------------------------*\
| =========                 |                                                 |
| \\      /  F ield         | foam-extend: Open Source CFD                    |
|  \\    /   O peration     | Version:     4.0                                |
|   \\  /    A nd           | Web:         http://www.foam-extend.org         |
|    \\/     M anipulation  |                                                 |
\*---------------------------------------------------------------------------*/
FoamFile
{
    version     2.0;
    format      ascii;
    class       surfaceScalarField;
    location    "0.0018";
    object      phi;
}
// * * * * * * * * * * * * * * * * * * * * * * * * * * * * * * * * * * * * * //

dimensions      [0 3 -1 0 0 0 0];

internalField   nonuniform List<scalar> 
57362
(
1.08039e-10
6.39942e-15
1.08019e-10
1.93704e-14
1.07987e-10
3.25736e-14
1.07941e-10
4.62949e-14
1.0788e-10
6.07679e-14
1.07804e-10
7.61242e-14
1.07711e-10
9.2621e-14
1.07601e-10
1.10452e-13
1.07471e-10
1.30032e-13
1.07319e-10
1.51628e-13
1.07143e-10
1.75469e-13
1.06942e-10
2.01828e-13
1.0671e-10
2.31279e-13
1.06446e-10
2.64119e-13
1.06145e-10
3.0082e-13
1.05803e-10
3.41851e-13
1.05416e-10
3.87882e-13
1.04976e-10
4.3937e-13
1.04479e-10
4.9706e-13
1.03917e-10
5.61534e-13
1.03284e-10
6.34006e-13
1.02569e-10
7.1452e-13
1.01764e-10
8.05027e-13
1.00858e-10
9.05145e-13
9.98415e-11
1.01753e-12
9.86997e-11
1.14095e-12
9.74209e-11
1.27961e-12
9.59894e-11
1.4303e-12
9.43911e-11
1.59951e-12
9.26084e-11
1.78113e-12
9.06252e-11
1.9848e-12
8.8423e-11
2.20002e-12
8.5984e-11
2.44098e-12
8.32905e-11
2.69092e-12
8.03235e-11
2.96929e-12
7.70683e-11
3.25219e-12
7.35069e-11
3.56389e-12
6.96296e-11
3.87416e-12
6.54226e-11
4.20932e-12
6.08838e-11
4.53573e-12
5.60082e-11
4.8777e-12
5.08031e-11
5.20223e-12
4.52769e-11
5.52781e-12
3.94487e-11
5.82585e-12
3.33426e-11
6.10725e-12
2.69909e-11
6.34986e-12
2.04331e-11
6.55837e-12
1.37142e-11
6.71769e-12
6.88521e-12
6.82898e-12
6.8846e-12
1.0804e-10
1.27349e-14
1.08021e-10
3.84472e-14
1.07989e-10
6.46517e-14
1.07943e-10
9.18653e-14
1.07884e-10
1.20575e-13
1.07809e-10
1.51085e-13
1.07718e-10
1.83828e-13
1.07609e-10
2.19374e-13
1.0748e-10
2.58254e-13
1.07331e-10
3.0103e-13
1.07158e-10
3.48322e-13
1.06959e-10
4.0077e-13
1.06731e-10
4.59282e-13
1.06471e-10
5.24436e-13
1.06174e-10
5.97347e-13
1.05837e-10
6.78953e-13
1.05455e-10
7.70395e-13
1.05021e-10
8.72692e-13
1.04531e-10
9.87495e-13
1.03977e-10
1.11569e-12
1.03351e-10
1.25977e-12
1.02645e-10
1.41995e-12
1.01851e-10
1.60004e-12
1.00956e-10
1.79928e-12
9.99512e-11
2.02317e-12
9.88224e-11
2.26896e-12
9.75577e-11
2.54535e-12
9.61412e-11
2.84572e-12
9.45589e-11
3.18343e-12
9.27929e-11
3.54564e-12
9.0827e-11
3.9529e-12
8.86424e-11
4.3826e-12
8.62212e-11
4.86528e-12
8.35448e-11
5.36482e-12
8.05943e-11
5.92363e-12
7.7354e-11
6.48981e-12
7.38049e-11
7.11729e-12
6.99374e-11
7.73905e-12
6.57359e-11
8.41554e-12
6.11984e-11
9.07106e-12
5.63182e-11
9.76255e-12
5.11029e-11
1.04161e-11
4.55597e-11
1.10754e-11
3.97077e-11
1.16772e-11
3.35712e-11
1.22476e-11
2.71826e-11
1.27387e-11
2.05824e-11
1.31618e-11
1.38164e-11
1.34848e-11
6.93719e-12
1.37108e-11
1.38236e-11
1.08076e-10
1.88789e-14
1.08058e-10
5.69181e-14
1.08026e-10
9.58467e-14
1.07982e-10
1.3618e-13
1.07924e-10
1.78621e-13
1.07851e-10
2.23805e-13
1.07763e-10
2.72382e-13
1.07657e-10
3.25073e-13
1.07533e-10
3.82732e-13
1.07388e-10
4.46082e-13
1.0722e-10
5.16183e-13
1.07026e-10
5.93999e-13
1.06805e-10
6.80671e-13
1.06552e-10
7.77366e-13
1.06264e-10
8.85556e-13
1.05936e-10
1.00664e-12
1.05564e-10
1.14237e-12
1.05143e-10
1.29421e-12
1.04665e-10
1.46472e-12
1.04126e-10
1.65524e-12
1.03516e-10
1.86923e-12
1.02828e-10
2.10745e-12
1.02054e-10
2.37527e-12
1.0118e-10
2.67172e-12
1.00199e-10
3.00518e-12
9.90955e-11
3.3714e-12
9.78582e-11
3.78342e-12
9.64708e-11
4.23159e-12
9.49194e-11
4.73594e-12
9.31855e-11
5.27737e-12
9.1253e-11
5.8867e-12
8.91025e-11
6.53045e-12
8.67151e-11
7.25411e-12
8.40721e-11
8.00439e-12
8.11528e-11
8.84438e-12
7.79412e-11
9.69746e-12
7.44165e-11
1.06432e-11
7.05677e-11
1.15833e-11
6.63778e-11
1.26062e-11
6.18429e-11
1.36012e-11
5.69549e-11
1.46505e-11
5.17195e-11
1.56467e-11
4.6143e-11
1.66511e-11
4.02437e-11
1.75719e-11
3.40455e-11
1.84444e-11
2.75816e-11
1.91983e-11
2.08938e-11
1.98475e-11
1.40301e-11
2.03448e-11
7.04588e-12
2.06924e-11
2.08663e-11
1.08113e-10
2.47539e-14
1.08095e-10
7.45759e-14
1.08065e-10
1.25582e-13
1.08023e-10
1.78468e-13
1.07968e-10
2.34058e-13
1.07898e-10
2.93248e-13
1.07814e-10
3.56917e-13
1.07713e-10
4.26047e-13
1.07594e-10
5.01574e-13
1.07455e-10
5.84691e-13
1.07295e-10
6.76628e-13
1.0711e-10
7.78653e-13
1.06898e-10
8.92404e-13
1.06656e-10
1.01935e-12
1.06381e-10
1.16137e-12
1.06067e-10
1.32027e-12
1.05711e-10
1.49857e-12
1.05307e-10
1.69807e-12
1.0485e-10
1.92229e-12
1.04332e-10
2.17278e-12
1.03747e-10
2.45434e-12
1.03086e-10
2.76798e-12
1.02341e-10
3.12084e-12
1.01501e-10
3.51163e-12
1.00555e-10
3.95164e-12
9.94904e-11
4.43525e-12
9.82953e-11
4.98011e-12
9.69527e-11
5.57292e-12
9.54493e-11
6.24162e-12
9.37655e-11
6.95933e-12
9.18858e-11
7.76988e-12
8.97886e-11
8.62526e-12
8.74555e-11
9.59194e-12
8.48653e-11
1.05916e-11
8.19964e-11
1.17193e-11
7.88313e-11
1.28594e-11
7.53455e-11
1.41363e-11
7.15283e-11
1.53976e-11
6.73561e-11
1.67865e-11
6.28271e-11
1.81283e-11
5.79259e-11
1.956e-11
5.26597e-11
2.09124e-11
4.70313e-11
2.22875e-11
4.10585e-11
2.35458e-11
3.47659e-11
2.47443e-11
2.81865e-11
2.57802e-11
2.13656e-11
2.66749e-11
1.43533e-11
2.73608e-11
7.21035e-12
2.78409e-11
2.80813e-11
1.0815e-10
3.0284e-14
1.08133e-10
9.11503e-14
1.08105e-10
1.53398e-13
1.08066e-10
2.18069e-13
1.08014e-10
2.8606e-13
1.07949e-10
3.58411e-13
1.07869e-10
4.36236e-13
1.07775e-10
5.20733e-13
1.07663e-10
6.13071e-13
1.07533e-10
7.14807e-13
1.07382e-10
8.27258e-13
1.07209e-10
9.5211e-13
1.0701e-10
1.09134e-12
1.06783e-10
1.24677e-12
1.06523e-10
1.42075e-12
1.06228e-10
1.6154e-12
1.05893e-10
1.83392e-12
1.05512e-10
2.07864e-12
1.05081e-10
2.35375e-12
1.04592e-10
2.66121e-12
1.04039e-10
3.00723e-12
1.03414e-10
3.39278e-12
1.02708e-10
3.82697e-12
1.01911e-10
4.3083e-12
1.01012e-10
4.85064e-12
9.99986e-11
5.44752e-12
9.88586e-11
6.12089e-12
9.75752e-11
6.85435e-12
9.61349e-11
7.6831e-12
9.45176e-11
8.57385e-12
9.27067e-11
9.58205e-12
9.06805e-11
1.06477e-11
8.84187e-11
1.18551e-11
8.58995e-11
1.31061e-11
8.30985e-11
1.45214e-11
7.99965e-11
1.59557e-11
7.65659e-11
1.75672e-11
7.27932e-11
1.91638e-11
6.8652e-11
2.0927e-11
6.41354e-11
2.26376e-11
5.92263e-11
2.4467e-11
5.39263e-11
2.62047e-11
4.82364e-11
2.79742e-11
4.21713e-11
2.9603e-11
3.57552e-11
3.11561e-11
2.90221e-11
3.25058e-11
2.20197e-11
3.36722e-11
1.48032e-11
3.45703e-11
7.43956e-12
3.51988e-11
3.55145e-11
1.0822e-10
3.5288e-14
1.08205e-10
1.06346e-13
1.08179e-10
1.79e-13
1.08143e-10
2.54463e-13
1.08095e-10
3.33827e-13
1.08035e-10
4.18273e-13
1.07962e-10
5.09151e-13
1.07875e-10
6.07758e-13
1.07772e-10
7.15689e-13
1.07653e-10
8.34472e-13
1.07514e-10
9.65896e-13
1.07354e-10
1.11189e-12
1.07171e-10
1.2746e-12
1.06961e-10
1.45637e-12
1.06722e-10
1.65995e-12
1.0645e-10
1.88786e-12
1.0614e-10
2.14377e-12
1.05788e-10
2.43057e-12
1.05389e-10
2.75307e-12
1.04936e-10
3.11391e-12
1.04423e-10
3.52031e-12
1.03842e-10
3.97344e-12
1.03186e-10
4.48432e-12
1.02442e-10
5.05117e-12
1.01603e-10
5.69085e-12
1.00654e-10
6.39555e-12
9.95849e-11
7.19217e-12
9.83768e-11
8.06068e-12
9.70185e-11
9.04495e-12
9.54865e-11
1.01032e-11
9.3767e-11
1.13067e-11
9.18336e-11
1.25776e-11
8.96678e-11
1.40281e-11
8.72432e-11
1.55263e-11
8.45341e-11
1.72401e-11
8.15189e-11
1.89661e-11
7.81627e-11
2.09351e-11
7.44543e-11
2.28679e-11
7.0352e-11
2.50424e-11
6.58564e-11
2.71306e-11
6.09328e-11
2.94042e-11
5.55873e-11
3.15502e-11
4.98135e-11
3.37611e-11
4.36245e-11
3.5795e-11
3.70458e-11
3.77469e-11
3.01095e-11
3.94474e-11
2.28707e-11
4.09218e-11
1.53874e-11
4.20606e-11
7.73732e-12
4.28584e-11
4.32602e-11
1.08288e-10
3.97775e-14
1.08275e-10
1.19971e-13
1.08252e-10
2.01983e-13
1.08219e-10
2.87101e-13
1.08176e-10
3.76649e-13
1.08123e-10
4.71953e-13
1.08057e-10
5.74486e-13
1.07979e-10
6.85906e-13
1.07887e-10
8.07798e-13
1.0778e-10
9.41921e-13
1.07655e-10
1.09046e-12
1.07511e-10
1.2555e-12
1.07347e-10
1.43949e-12
1.07158e-10
1.64507e-12
1.06942e-10
1.87545e-12
1.06697e-10
2.13352e-12
1.06417e-10
2.42353e-12
1.06099e-10
2.74863e-12
1.05737e-10
3.11453e-12
1.05327e-10
3.52429e-12
1.04861e-10
3.9861e-12
1.04332e-10
4.50169e-12
1.03733e-10
5.08353e-12
1.03053e-10
5.72997e-12
1.02285e-10
6.4605e-12
1.01412e-10
7.26654e-12
1.00426e-10
8.17931e-12
9.93075e-11
9.1763e-12
9.8045e-11
1.03088e-11
9.66154e-11
1.1529e-11
9.50028e-11
1.2921e-11
9.31814e-11
1.4394e-11
9.1129e-11
1.60821e-11
8.88193e-11
1.78295e-11
8.62217e-11
1.98386e-11
8.33132e-11
2.18667e-11
8.00538e-11
2.41943e-11
7.64268e-11
2.64855e-11
7.23879e-11
2.90793e-11
6.79268e-11
3.15811e-11
6.30083e-11
3.43184e-11
5.76253e-11
3.69215e-11
5.17684e-11
3.96116e-11
4.54438e-11
4.21073e-11
3.86745e-11
4.45079e-11
3.1494e-11
4.66158e-11
2.396e-11
4.84465e-11
1.61397e-11
4.98695e-11
8.12149e-12
5.08667e-11
5.13711e-11
1.08355e-10
4.37004e-14
1.08343e-10
1.31826e-13
1.08323e-10
2.21941e-13
1.08295e-10
3.15489e-13
1.08257e-10
4.139e-13
1.08211e-10
5.18678e-13
1.08154e-10
6.31399e-13
1.08086e-10
7.53903e-13
1.08006e-10
8.87953e-13
1.07912e-10
1.03558e-12
1.07803e-10
1.19904e-12
1.07678e-10
1.38076e-12
1.07534e-10
1.58345e-12
1.07369e-10
1.80997e-12
1.07181e-10
2.06403e-12
1.06965e-10
2.34873e-12
1.0672e-10
2.66891e-12
1.06441e-10
3.02802e-12
1.06123e-10
3.43261e-12
1.05761e-10
3.88608e-12
1.0535e-10
4.39764e-12
1.04881e-10
4.96957e-12
1.0435e-10
5.61562e-12
1.03745e-10
6.33457e-12
1.03059e-10
7.14827e-12
1.02276e-10
8.04756e-12
1.0139e-10
9.06828e-12
1.00379e-10
1.0185e-11
9.92351e-11
1.14579e-11
9.79293e-11
1.28311e-11
9.64521e-11
1.44056e-11
9.47688e-11
1.6072e-11
9.28639e-11
1.79978e-11
9.07005e-11
1.99858e-11
8.82509e-11
2.23028e-11
8.54853e-11
2.46243e-11
8.23534e-11
2.73444e-11
7.88453e-11
2.99859e-11
7.48847e-11
3.30607e-11
7.0484e-11
3.5977e-11
6.55654e-11
3.92583e-11
6.01352e-11
4.2352e-11
5.41725e-11
4.55946e-11
4.76751e-11
4.86103e-11
4.06721e-11
5.15297e-11
3.31869e-11
5.41103e-11
2.52925e-11
5.63577e-11
1.70576e-11
5.8116e-11
8.59063e-12
5.93488e-11
5.9975e-11
1.08451e-10
4.69425e-14
1.08441e-10
1.41669e-13
1.08425e-10
2.3856e-13
1.08401e-10
3.39166e-13
1.0837e-10
4.44982e-13
1.08331e-10
5.57671e-13
1.08283e-10
6.79005e-13
1.08226e-10
8.10774e-13
1.08159e-10
9.55017e-13
1.08081e-10
1.11395e-12
1.0799e-10
1.28999e-12
1.07885e-10
1.48577e-12
1.07764e-10
1.70427e-12
1.07625e-10
1.94857e-12
1.07467e-10
2.22274e-12
1.07285e-10
2.53016e-12
1.07078e-10
2.87611e-12
1.06841e-10
3.26448e-12
1.06572e-10
3.70241e-12
1.06264e-10
4.19377e-12
1.05913e-10
4.74858e-12
1.05512e-10
5.36976e-12
1.05056e-10
6.07231e-12
1.04534e-10
6.85556e-12
1.03939e-10
7.74337e-12
1.03258e-10
8.72674e-12
1.02483e-10
9.84503e-12
1.01592e-10
1.10718e-11
1.00578e-10
1.24738e-11
9.94138e-11
1.39907e-11
9.80854e-11
1.57363e-11
9.6561e-11
1.75896e-11
9.4819e-11
1.97421e-11
9.28252e-11
2.19709e-11
9.05429e-11
2.45866e-11
8.79428e-11
2.72135e-11
8.49668e-11
3.03201e-11
8.15971e-11
3.33427e-11
7.77565e-11
3.68981e-11
7.34354e-11
4.0283e-11
6.85642e-11
4.41225e-11
6.31184e-11
4.77804e-11
5.70705e-11
5.16316e-11
5.04055e-11
5.52566e-11
4.31431e-11
5.87784e-11
3.53091e-11
6.19256e-11
2.69758e-11
6.46759e-11
1.82279e-11
6.68464e-11
9.19034e-12
6.83707e-11
6.9149e-11
1.08542e-10
4.95272e-14
1.08535e-10
1.49432e-13
1.08522e-10
2.51635e-13
1.08503e-10
3.5779e-13
1.08479e-10
4.6943e-13
1.08448e-10
5.88321e-13
1.0841e-10
7.1643e-13
1.08366e-10
8.55581e-13
1.08313e-10
1.00792e-12
1.08251e-10
1.17582e-12
1.08179e-10
1.36188e-12
1.08096e-10
1.56883e-12
1.08e-10
1.80003e-12
1.0789e-10
2.05867e-12
1.07764e-10
2.349e-12
1.07619e-10
2.67486e-12
1.07454e-10
3.04174e-12
1.07264e-10
3.45404e-12
1.07047e-10
3.91934e-12
1.06799e-10
4.44206e-12
1.06515e-10
5.03286e-12
1.06189e-10
5.69536e-12
1.05817e-10
6.44562e-12
1.05388e-10
7.28368e-12
1.04898e-10
8.23518e-12
1.04331e-10
9.29165e-12
1.03685e-10
1.04956e-11
1.02933e-10
1.18201e-11
1.02075e-10
1.33382e-11
1.01075e-10
1.49856e-11
9.9931e-11
1.68903e-11
9.85955e-11
1.89169e-11
9.70638e-11
2.12893e-11
9.52791e-11
2.37442e-11
9.32203e-11
2.6667e-11
9.08391e-11
2.95808e-11
8.80703e-11
3.31166e-11
8.49083e-11
3.64906e-11
8.12103e-11
4.06279e-11
7.70371e-11
4.44468e-11
7.22035e-11
4.89879e-11
6.67237e-11
5.32611e-11
6.05667e-11
5.78184e-11
5.3682e-11
6.21513e-11
4.61103e-11
6.63776e-11
3.7845e-11
7.02066e-11
2.89879e-11
7.3558e-11
1.96215e-11
7.62313e-11
9.90535e-12
7.8109e-11
7.90745e-11
1.08628e-10
5.13582e-14
1.08622e-10
1.54978e-13
1.08613e-10
2.60996e-13
1.086e-10
3.71036e-13
1.08582e-10
4.86867e-13
1.0856e-10
6.10232e-13
1.08534e-10
7.43125e-13
1.08502e-10
8.87525e-13
1.08464e-10
1.04573e-12
1.0842e-10
1.2202e-12
1.08368e-10
1.41353e-12
1.08308e-10
1.62868e-12
1.08239e-10
1.86919e-12
1.08159e-10
2.13839e-12
1.08068e-10
2.44069e-12
1.07962e-10
2.78031e-12
1.07841e-10
3.16292e-12
1.07701e-10
3.59342e-12
1.07541e-10
4.0796e-12
1.07356e-10
4.62647e-12
1.07144e-10
5.24533e-12
1.06898e-10
5.94042e-12
1.06616e-10
6.72853e-12
1.06287e-10
7.61092e-12
1.05909e-10
8.61424e-12
1.05467e-10
9.73149e-12
1.04957e-10
1.1007e-11
1.04358e-10
1.24154e-11
1.03665e-10
1.40335e-11
1.02847e-10
1.57972e-11
1.01898e-10
1.78431e-11
1.00775e-10
2.00304e-11
9.9464e-11
2.26041e-11
9.79174e-11
2.52793e-11
9.60969e-11
2.84905e-11
9.39622e-11
3.17009e-11
9.14328e-11
3.56469e-11
8.84945e-11
3.94115e-11
8.50109e-11
4.41079e-11
8.09965e-11
4.84407e-11
7.63132e-11
5.36615e-11
7.08967e-11
5.86522e-11
6.46958e-11
6.40024e-11
5.76441e-11
6.91751e-11
4.97527e-11
7.42473e-11
4.10228e-11
7.89085e-11
3.15404e-11
8.30169e-11
2.14141e-11
8.63317e-11
1.08295e-11
8.86704e-11
8.98803e-11
1.08739e-10
5.24134e-14
1.08736e-10
1.58142e-13
1.08731e-10
2.66367e-13
1.08723e-10
3.78712e-13
1.08713e-10
4.96976e-13
1.087e-10
6.22994e-13
1.08684e-10
7.587e-13
1.08666e-10
9.06222e-13
1.08644e-10
1.06789e-12
1.08618e-10
1.24625e-12
1.08587e-10
1.44406e-12
1.08551e-10
1.66426e-12
1.0851e-10
1.91047e-12
1.08462e-10
2.18622e-12
1.08407e-10
2.49614e-12
1.08343e-10
2.84455e-12
1.08268e-10
3.2374e-12
1.08182e-10
3.67989e-12
1.08082e-10
4.17998e-12
1.07964e-10
4.74335e-12
1.07829e-10
5.38149e-12
1.07669e-10
6.09958e-12
1.07485e-10
6.91474e-12
1.07264e-10
7.82977e-12
1.0701e-10
8.87147e-12
1.06703e-10
1.00354e-11
1.06349e-10
1.13662e-11
1.05918e-10
1.28422e-11
1.05419e-10
1.45406e-11
1.04806e-10
1.64027e-11
1.04095e-10
1.85672e-11
1.03217e-10
2.08968e-11
1.02193e-10
2.36491e-11
1.00929e-10
2.65261e-11
9.94362e-11
3.00134e-11
9.7619e-11
3.34951e-11
9.54218e-11
3.78846e-11
9.28318e-11
4.19756e-11
8.95909e-11
4.73968e-11
8.59343e-11
5.20781e-11
8.13645e-11
5.82763e-11
7.59286e-11
6.40911e-11
6.96654e-11
7.03067e-11
6.23675e-11
7.64914e-11
5.41032e-11
8.255e-11
4.47881e-11
8.82501e-11
3.45601e-11
9.32804e-11
2.35226e-11
9.73978e-11
1.19166e-11
1.00308e-10
1.01826e-10
1.08841e-10
5.27544e-14
1.0884e-10
1.58991e-13
1.08839e-10
2.67708e-13
1.08837e-10
3.8066e-13
1.08834e-10
4.99553e-13
1.08831e-10
6.26309e-13
1.08827e-10
7.62833e-13
1.08822e-10
9.11279e-13
1.08816e-10
1.07401e-12
1.08809e-10
1.25356e-12
1.088e-10
1.45285e-12
1.08789e-10
1.67478e-12
1.08777e-10
1.92303e-12
1.08761e-10
2.2013e-12
1.08744e-10
2.51417e-12
1.08722e-10
2.86627e-12
1.08696e-10
3.26351e-12
1.08664e-10
3.71139e-12
1.08626e-10
4.21811e-12
1.08579e-10
4.78981e-12
1.08523e-10
5.43798e-12
1.08453e-10
6.16886e-12
1.08369e-10
6.99942e-12
1.08262e-10
7.93425e-12
1.08136e-10
8.99987e-12
1.07973e-10
1.01949e-11
1.07778e-10
1.1563e-11
1.07528e-10
1.30879e-11
1.07227e-10
1.48453e-11
1.06837e-10
1.6784e-11
1.06367e-10
1.90424e-11
1.05762e-10
2.14915e-11
1.05022e-10
2.43948e-11
1.04079e-10
2.74543e-11
1.02909e-10
3.11891e-11
1.01446e-10
3.49388e-11
9.95958e-11
3.97398e-11
9.73495e-11
4.41986e-11
9.44564e-11
5.02887e-11
9.10584e-11
5.54503e-11
8.68655e-11
6.24586e-11
8.17034e-11
6.92159e-11
7.55164e-11
7.64684e-11
6.81199e-11
8.38466e-11
5.95056e-11
9.11304e-11
4.96099e-11
9.81039e-11
3.85097e-11
1.04345e-10
2.63381e-11
1.09532e-10
1.33816e-11
1.13232e-10
1.15175e-10
1.08933e-10
5.2229e-14
1.08934e-10
1.57402e-13
1.08937e-10
2.6504e-13
1.08941e-10
3.76851e-13
1.08946e-10
4.9459e-13
1.08952e-10
6.20153e-13
1.08959e-10
7.55395e-13
1.08968e-10
9.02541e-13
1.08978e-10
1.06389e-12
1.0899e-10
1.24196e-12
1.09003e-10
1.43963e-12
1.09018e-10
1.65993e-12
1.09034e-10
1.90652e-12
1.09053e-10
2.18306e-12
1.09073e-10
2.49415e-12
1.09094e-10
2.84455e-12
1.09118e-10
3.2402e-12
1.09142e-10
3.68676e-12
1.09169e-10
4.19245e-12
1.09194e-10
4.76384e-12
1.09221e-10
5.41223e-12
1.09244e-10
6.14499e-12
1.09267e-10
6.97842e-12
1.0928e-10
7.91936e-12
1.0929e-10
8.99276e-12
1.0928e-10
1.02019e-11
1.09262e-10
1.15865e-11
1.09205e-10
1.31398e-11
1.09131e-10
1.49288e-11
1.08984e-10
1.6921e-11
1.08807e-10
1.92367e-11
1.085e-10
2.17824e-11
1.08134e-10
2.47867e-11
1.07551e-10
2.8013e-11
1.06852e-10
3.19281e-11
1.05812e-10
3.5943e-11
1.04509e-10
4.11001e-11
1.02782e-10
4.58782e-11
1.00262e-10
5.28835e-11
9.78204e-11
5.78481e-11
9.38635e-11
6.64743e-11
8.85445e-11
7.45474e-11
8.24714e-11
8.25927e-11
7.49032e-11
9.14499e-11
6.59115e-11
1.00174e-10
5.52589e-11
1.08802e-10
4.30985e-11
1.16555e-10
2.95813e-11
1.23092e-10
1.50651e-11
1.27789e-10
1.30279e-10
1.09046e-10
5.08366e-14
1.0905e-10
1.53394e-13
1.09056e-10
2.58356e-13
1.09066e-10
3.67351e-13
1.09078e-10
4.82153e-13
1.09094e-10
6.0456e-13
1.09113e-10
7.36506e-13
1.09135e-10
8.80097e-13
1.09161e-10
1.0376e-12
1.09192e-10
1.21146e-12
1.09227e-10
1.40451e-12
1.09267e-10
1.61983e-12
1.09313e-10
1.8609e-12
1.09364e-10
2.13149e-12
1.09422e-10
2.43608e-12
1.09487e-10
2.77936e-12
1.0956e-10
3.16729e-12
1.09641e-10
3.60567e-12
1.09732e-10
4.10243e-12
1.0983e-10
4.66472e-12
1.0994e-10
5.30325e-12
1.10057e-10
6.02641e-12
1.10187e-10
6.84982e-12
1.10322e-10
7.78222e-12
1.1047e-10
8.84676e-12
1.10617e-10
1.00511e-11
1.10775e-10
1.14311e-11
1.1092e-10
1.29886e-11
1.11071e-10
1.47828e-11
1.11185e-10
1.67979e-11
1.1129e-10
1.91387e-11
1.11317e-10
2.17426e-11
1.11301e-10
2.48117e-11
1.11136e-10
2.81593e-11
1.10857e-10
3.22189e-11
1.10319e-10
3.6455e-11
1.09491e-10
4.19424e-11
1.08291e-10
4.70455e-11
1.06232e-10
5.4949e-11
1.04029e-10
6.0026e-11
1.00988e-10
3.74577e-11
3.20554e-11
9.65386e-11
3.66956e-11
4.22435e-11
9.0787e-11
4.13484e-11
4.69566e-11
8.33037e-11
4.66681e-11
5.22037e-11
7.40302e-11
5.20361e-11
5.73548e-11
6.27608e-11
5.75401e-11
6.24636e-11
4.94449e-11
6.27844e-11
6.70259e-11
3.42074e-11
6.74975e-11
7.07755e-11
1.75054e-11
7.11831e-11
7.32598e-11
7.35135e-11
7.42255e-11
1.09141e-10
4.87454e-14
1.09148e-10
1.47114e-13
1.09158e-10
2.4773e-13
1.09173e-10
3.5224e-13
1.09193e-10
4.62325e-13
1.09218e-10
5.79723e-13
1.09248e-10
7.06394e-13
1.09284e-10
8.44178e-13
1.09326e-10
9.95449e-13
1.09375e-10
1.1624e-12
1.09432e-10
1.34787e-12
1.09497e-10
1.55488e-12
1.09571e-10
1.7867e-12
1.09655e-10
2.04711e-12
1.09751e-10
2.34037e-12
1.09859e-10
2.67127e-12
1.09981e-10
3.04534e-12
1.10118e-10
3.46856e-12
1.10273e-10
3.94849e-12
1.10444e-10
4.49262e-12
1.10638e-10
5.11104e-12
1.1085e-10
5.81298e-12
1.11089e-10
6.61272e-12
1.11348e-10
7.52143e-12
1.11639e-10
8.55911e-12
1.11947e-10
9.73911e-12
1.12295e-10
1.10903e-11
1.12649e-10
1.26271e-11
1.1305e-10
1.43932e-11
1.13436e-10
1.64011e-11
1.13874e-10
1.87189e-11
1.14248e-10
2.13499e-11
1.14683e-10
2.44056e-11
1.14952e-10
2.78609e-11
1.15308e-10
3.19088e-11
1.15266e-10
3.64485e-11
1.15445e-10
4.18391e-11
1.14622e-10
4.77855e-11
1.14695e-10
5.5008e-11
5.68863e-11
6.27438e-11
5.4933e-11
-3.28177e-11
3.37851e-11
5.62911e-11
-5.35478e-11
5.25701e-11
3.75668e-11
-5.18134e-11
5.04522e-11
4.26446e-11
-4.91542e-11
4.74444e-11
4.83451e-11
-4.5671e-11
4.34071e-11
5.42893e-11
-4.09784e-11
3.81187e-11
6.04028e-11
-3.49855e-11
3.15079e-11
6.62682e-11
-2.77078e-11
2.36445e-11
7.15678e-11
-1.92787e-11
1.46982e-11
7.57733e-11
-9.90171e-12
4.99004e-12
7.84418e-11
1.09235e-10
4.59153e-14
1.09244e-10
1.38508e-13
1.09258e-10
2.33261e-13
1.09279e-10
3.31732e-13
1.09305e-10
4.35468e-13
1.09339e-10
5.46075e-13
1.0938e-10
6.65426e-13
1.09429e-10
7.95336e-13
1.09486e-10
9.37979e-13
1.09553e-10
1.09547e-12
1.09631e-10
1.2705e-12
1.0972e-10
1.46595e-12
1.09822e-10
1.68486e-12
1.09938e-10
1.93095e-12
1.1007e-10
2.20827e-12
1.10219e-10
2.52145e-12
1.10389e-10
2.87566e-12
1.10581e-10
3.27693e-12
1.10797e-10
3.73223e-12
1.1104e-10
4.24916e-12
1.11315e-10
4.83718e-12
1.1162e-10
5.50613e-12
1.11965e-10
6.26871e-12
1.12346e-10
7.13803e-12
1.12777e-10
8.13112e-12
1.13246e-10
9.26558e-12
1.13776e-10
1.05646e-11
1.14344e-10
1.20521e-11
1.14984e-10
1.37592e-11
1.15655e-10
1.57204e-11
1.16407e-10
1.79759e-11
1.17163e-10
2.05782e-11
1.18009e-10
2.35733e-11
1.18794e-10
2.70532e-11
1.1968e-10
3.1043e-11
1.20345e-10
3.57488e-11
1.21182e-10
4.10351e-11
1.2137e-10
4.75403e-11
1.22174e-10
5.42672e-11
6.20878e-11
6.38309e-11
5.88929e-11
-3.41223e-11
3.47345e-11
6.1763e-11
-5.82296e-11
5.74923e-11
-3.87545e-11
3.93321e-11
-5.69417e-11
5.58642e-11
-4.42542e-11
4.52204e-11
-5.48076e-11
5.32719e-11
-5.03655e-11
5.18297e-11
-5.16303e-11
4.94438e-11
-5.68604e-11
5.9008e-11
-4.70734e-11
4.40389e-11
-6.35043e-11
6.65247e-11
-4.06119e-11
3.68181e-11
-7.01029e-11
7.38883e-11
-3.25672e-11
2.79492e-11
-7.6109e-11
8.07211e-11
-2.29035e-11
1.75324e-11
-8.08936e-11
8.62647e-11
-1.18535e-11
5.9831e-12
-8.38873e-11
8.97699e-11
1.09326e-10
4.23479e-14
1.09336e-10
1.27775e-13
1.09354e-10
2.15269e-13
1.0938e-10
3.0613e-13
1.09414e-10
4.01911e-13
1.09456e-10
5.041e-13
1.09507e-10
6.14256e-13
1.09568e-10
7.34252e-13
1.0964e-10
8.65999e-13
1.09724e-10
1.01158e-12
1.09821e-10
1.17344e-12
1.09932e-10
1.35425e-12
1.10061e-10
1.55678e-12
1.10207e-10
1.78465e-12
1.10374e-10
2.04157e-12
1.10563e-10
2.33183e-12
1.10779e-10
2.66039e-12
1.11022e-10
3.03304e-12
1.11299e-10
3.4561e-12
1.1161e-10
3.93712e-12
1.11964e-10
4.48462e-12
1.1236e-10
5.10892e-12
1.1281e-10
5.82089e-12
1.13311e-10
6.63512e-12
1.1388e-10
7.56533e-12
1.14509e-10
8.63314e-12
1.15225e-10
9.85483e-12
1.16006e-10
1.12643e-11
1.16898e-10
1.2878e-11
1.17854e-10
1.47533e-11
1.1895e-10
1.6898e-11
1.20091e-10
1.94176e-11
1.21407e-10
2.22861e-11
1.22716e-10
2.57135e-11
1.24236e-10
2.95684e-11
1.25627e-10
3.43092e-11
1.27245e-10
3.94853e-11
1.28506e-10
4.6203e-11
1.29857e-10
5.30182e-11
6.7232e-11
6.29274e-11
6.34149e-11
-3.46929e-11
3.47871e-11
6.73635e-11
-6.34731e-11
6.31183e-11
-4.01578e-11
4.03937e-11
-6.28911e-11
6.22019e-11
-4.64274e-11
4.70456e-11
-6.1471e-11
6.02874e-11
-5.35558e-11
5.47095e-11
-5.89268e-11
5.6999e-11
-6.14073e-11
6.3344e-11
-5.50155e-11
5.17029e-11
-6.93785e-11
7.27406e-11
-4.77487e-11
4.36979e-11
-7.7873e-11
8.19582e-11
-3.89614e-11
3.37234e-11
-8.58021e-11
9.10608e-11
-2.78409e-11
2.14418e-11
-9.22636e-11
9.86765e-11
-1.45663e-11
7.372e-12
-9.63407e-11
1.0355e-10
1.09408e-10
3.81803e-14
1.09421e-10
1.15175e-13
1.09442e-10
1.93985e-13
1.09472e-10
2.75854e-13
1.09512e-10
3.62134e-13
1.09562e-10
4.54287e-13
1.09623e-10
5.53624e-13
1.09695e-10
6.61808e-13
1.0978e-10
7.80645e-13
1.0988e-10
9.12003e-13
1.09995e-10
1.0581e-12
1.10128e-10
1.22133e-12
1.10281e-10
1.4043e-12
1.10455e-10
1.61028e-12
1.10654e-10
1.84252e-12
1.10881e-10
2.10513e-12
1.11139e-10
2.40262e-12
1.11431e-10
2.7403e-12
1.11764e-10
3.1239e-12
1.12139e-10
3.56063e-12
1.12567e-10
4.058e-12
1.13048e-10
4.62635e-12
1.13596e-10
5.27477e-12
1.1421e-10
6.01845e-12
1.1491e-10
6.86822e-12
1.15691e-10
7.84806e-12
1.16581e-10
8.96842e-12
1.17569e-10
1.02696e-11
1.18697e-10
1.17566e-11
1.19938e-10
1.35022e-11
1.21355e-10
1.54905e-11
1.22896e-10
1.7862e-11
1.24656e-10
2.05409e-11
1.26529e-10
2.38167e-11
1.28671e-10
2.74502e-11
1.30871e-10
3.20741e-11
1.33375e-10
3.70189e-11
1.35792e-10
4.37301e-11
1.38436e-10
5.04376e-11
7.24429e-11
6.04925e-11
6.83415e-11
-3.43675e-11
3.39303e-11
7.30546e-11
-6.92736e-11
6.94018e-11
-4.0718e-11
4.05011e-11
-6.96433e-11
6.94894e-11
-4.77418e-11
4.78529e-11
-6.92141e-11
6.86198e-11
-5.60183e-11
5.66101e-11
-6.75484e-11
6.64095e-11
-6.58058e-11
6.69854e-11
-3.26285e-11
-3.92501e-11
3.15119e-11
3.99984e-11
-2.89096e-11
-4.56736e-11
2.75904e-11
4.67063e-11
-2.35991e-11
-5.13312e-11
2.18622e-11
5.28612e-11
-1.63524e-11
-5.5898e-11
1.41825e-11
5.79377e-11
-7.38787e-12
6.09762e-11
-5.85749e-11
4.93207e-12
1.09482e-10
3.34298e-14
1.09496e-10
1.0076e-13
1.0952e-10
1.69701e-13
1.09555e-10
2.41368e-13
1.096e-10
3.16853e-13
1.09657e-10
3.97407e-13
1.09726e-10
4.84358e-13
1.09809e-10
5.79115e-13
1.09906e-10
6.83168e-13
1.1002e-10
7.98223e-13
1.10152e-10
9.26191e-13
1.10304e-10
1.06924e-12
1.10479e-10
1.2297e-12
1.10679e-10
1.41035e-12
1.10907e-10
1.61412e-12
1.11167e-10
1.84476e-12
1.11464e-10
2.10606e-12
1.11801e-10
2.40297e-12
1.12186e-10
2.74035e-12
1.1262e-10
3.12504e-12
1.13116e-10
3.56336e-12
1.13676e-10
4.06509e-12
1.14315e-10
4.6377e-12
1.15035e-10
5.29631e-12
1.15858e-10
6.04891e-12
1.16782e-10
6.92013e-12
1.17841e-10
7.91591e-12
1.19025e-10
9.07929e-12
1.20385e-10
1.04071e-11
1.21897e-10
1.19791e-11
1.23638e-10
1.37653e-11
1.25561e-10
1.59216e-11
1.27779e-10
1.83488e-11
1.30204e-10
2.13636e-11
1.32994e-10
2.46992e-11
1.36012e-10
2.90147e-11
1.3943e-10
3.36549e-11
1.43094e-10
4.00075e-11
1.47046e-10
4.65577e-11
7.77078e-11
5.6181e-11
7.35703e-11
-3.30147e-11
3.1948e-11
7.89126e-11
-7.55503e-11
7.62816e-11
-4.02057e-11
3.94066e-11
-7.71548e-11
7.76828e-11
-4.78299e-11
4.72751e-11
-7.81358e-11
7.82334e-11
-5.7016e-11
5.69249e-11
-7.7989e-11
7.72671e-11
-6.78625e-11
6.86188e-11
-3.94666e-11
-4.21181e-11
3.86118e-11
4.26062e-11
-3.59583e-11
-4.9955e-11
3.47104e-11
5.09666e-11
-3.02354e-11
-5.79173e-11
2.83535e-11
5.96577e-11
-2.15608e-11
-6.491e-11
1.89041e-11
6.74922e-11
-9.93327e-12
7.25473e-11
-6.93253e-11
6.68648e-12
1.09548e-10
2.8114e-14
1.09564e-10
8.47482e-14
1.09591e-10
1.42783e-13
1.09629e-10
2.03101e-13
1.09679e-10
2.66676e-13
1.09742e-10
3.34454e-13
1.09819e-10
4.07609e-13
1.0991e-10
4.87413e-13
1.10019e-10
5.75011e-13
1.10145e-10
6.71941e-13
1.10291e-10
7.79757e-13
1.1046e-10
9.00312e-13
1.10654e-10
1.03561e-12
1.10877e-10
1.1879e-12
1.11131e-10
1.35984e-12
1.11421e-10
1.55453e-12
1.11752e-10
1.77516e-12
1.12129e-10
2.02611e-12
1.12558e-10
2.31132e-12
1.13046e-10
2.63698e-12
1.13602e-10
3.00813e-12
1.14232e-10
3.43363e-12
1.14952e-10
3.91937e-12
1.15766e-10
4.47948e-12
1.16698e-10
5.11949e-12
1.17751e-10
5.86299e-12
1.18959e-10
6.71238e-12
1.20322e-10
7.7101e-12
1.21888e-10
8.84717e-12
1.23654e-10
1.02041e-11
1.25688e-10
1.17414e-11
1.27976e-10
1.36189e-11
1.30617e-10
1.5723e-11
1.33581e-10
1.83774e-11
1.37003e-10
2.13004e-11
1.40834e-10
2.51527e-11
1.45229e-10
2.92934e-11
1.5014e-10
3.50521e-11
1.55657e-10
4.10908e-11
8.28914e-11
4.995e-11
7.8934e-11
-3.04815e-11
2.87665e-11
8.47154e-11
-8.21186e-11
8.35755e-11
-3.838e-11
3.68692e-11
-8.52509e-11
8.66711e-11
-4.63977e-11
4.49589e-11
-8.81236e-11
8.92809e-11
-5.63986e-11
5.52494e-11
-9.0248e-11
9.07318e-11
-6.88109e-11
6.83547e-11
-4.7503e-11
-4.38584e-11
4.69659e-11
4.40422e-11
-4.52262e-11
-5.392e-11
4.41757e-11
5.47692e-11
-3.99326e-11
-6.52624e-11
3.79228e-11
6.71773e-11
-2.98296e-11
-7.63539e-11
2.64193e-11
7.97385e-11
-1.42458e-11
8.86664e-11
-8.40502e-11
9.63839e-12
1.09602e-10
2.23689e-14
1.0962e-10
6.74632e-14
1.09649e-10
1.13649e-13
1.0969e-10
1.61644e-13
1.09745e-10
2.12291e-13
1.09813e-10
2.66331e-13
1.09896e-10
3.24546e-13
1.09995e-10
3.88096e-13
1.10112e-10
4.57854e-13
1.10249e-10
5.35075e-13
1.10408e-10
6.21052e-13
1.10591e-10
7.17116e-13
1.10802e-10
8.24964e-13
1.11043e-10
9.46429e-13
1.1132e-10
1.08365e-12
1.11635e-10
1.23903e-12
1.11995e-10
1.41521e-12
1.12405e-10
1.61568e-12
1.12874e-10
1.84364e-12
1.13406e-10
2.10418e-12
1.14014e-10
2.40111e-12
1.14704e-10
2.74214e-12
1.15494e-10
3.13146e-12
1.1639e-10
3.58121e-12
1.17418e-10
4.0953e-12
1.18583e-10
4.69412e-12
1.19923e-10
5.37824e-12
1.21442e-10
6.18484e-12
1.23195e-10
7.10404e-12
1.25182e-10
8.20654e-12
1.27482e-10
9.45595e-12
1.30094e-10
1.09911e-11
1.33125e-10
1.27141e-11
1.36578e-10
1.49018e-11
1.40585e-10
1.73234e-11
1.45176e-10
2.05293e-11
1.50488e-10
2.40229e-11
1.56625e-10
2.88726e-11
1.63656e-10
3.41095e-11
8.77109e-11
4.16967e-11
8.41451e-11
-2.66721e-11
2.42773e-11
9.01921e-11
-8.8665e-11
9.09591e-11
-3.50159e-11
3.26783e-11
-9.35747e-11
9.60955e-11
-4.3043e-11
4.05084e-11
-9.88055e-11
1.01409e-10
-5.34461e-11
5.08493e-11
-1.0403e-10
1.06398e-10
-6.70352e-11
6.46888e-11
-5.71091e-11
-4.38884e-11
5.71831e-11
4.3482e-11
-5.74588e-11
-5.65791e-11
5.70396e-11
5.68193e-11
-5.45973e-11
-7.26465e-11
5.31724e-11
7.40041e-11
-4.3644e-11
-9.1012e-11
3.93967e-11
9.53049e-11
-2.24176e-11
1.12808e-10
-1.05672e-10
1.53496e-11
1.09645e-10
1.62771e-14
1.09663e-10
4.91061e-14
1.09694e-10
8.27759e-14
1.09738e-10
1.17706e-13
1.09796e-10
1.54608e-13
1.09868e-10
1.93995e-13
1.09956e-10
2.36426e-13
1.10062e-10
2.82749e-13
1.10186e-10
3.33514e-13
1.10331e-10
3.89802e-13
1.105e-10
4.52526e-13
1.10694e-10
5.22546e-13
1.10918e-10
6.01174e-13
1.11175e-10
6.89773e-13
1.11469e-10
7.89855e-13
1.11804e-10
9.03309e-13
1.12188e-10
1.03189e-12
1.12625e-10
1.17829e-12
1.13124e-10
1.34483e-12
1.13692e-10
1.5353e-12
1.14342e-10
1.75244e-12
1.1508e-10
2.00207e-12
1.15926e-10
2.28711e-12
1.16888e-10
2.61692e-12
1.17992e-10
2.9938e-12
1.19249e-10
3.43399e-12
1.20695e-10
3.93653e-12
1.22342e-10
4.53132e-12
1.24245e-10
5.20813e-12
1.26418e-10
6.02458e-12
1.28935e-10
6.94779e-12
1.31822e-10
8.09106e-12
1.3518e-10
9.37057e-12
1.39051e-10
1.10116e-11
1.43571e-10
1.28245e-11
1.48824e-10
1.52504e-11
1.54974e-10
1.79011e-11
1.62204e-10
2.16095e-11
1.70682e-10
2.56678e-11
9.18663e-11
3.15517e-11
8.89182e-11
-2.15589e-11
1.85412e-11
9.49499e-11
-9.47766e-11
9.79524e-11
-2.99315e-11
2.67225e-11
-1.01575e-10
1.05325e-10
-3.73927e-11
3.36323e-11
-1.09476e-10
1.13827e-10
-4.74188e-11
4.30747e-11
-1.18516e-10
1.23394e-10
-6.11541e-11
5.6292e-11
-6.7934e-11
-4.09491e-11
6.90004e-11
3.95888e-11
-7.27771e-11
-5.58588e-11
7.36846e-11
5.4794e-11
-7.55657e-11
-7.78702e-11
7.8019e-11
3.96996e-11