/*--------------------------------*- C++ -*----------------------------------*\
| =========                 |                                                 |
| \\      /  F ield         | foam-extend: Open Source CFD                    |
|  \\    /   O peration     | Version:     4.0                                |
|   \\  /    A nd           | Web:         http://www.foam-extend.org         |
|    \\/     M anipulation  |                                                 |
\*---------------------------------------------------------------------------*/
FoamFile
{
    version     2.0;
    format      ascii;
    class       volVectorField;
    location    "0.0018";
    object      U;
}
// * * * * * * * * * * * * * * * * * * * * * * * * * * * * * * * * * * * * * //

dimensions      [0 1 -1 0 0 0 0];

internalField   nonuniform List<vector> 
28770
(
(0.00367801 1.07048e-07 0)
(0.00367758 3.23552e-07 0)
(0.00367669 5.45896e-07 0)
(0.00367536 7.75483e-07 0)
(0.00367354 1.0177e-06 0)
(0.00367122 1.27387e-06 0)
(0.00366836 1.55058e-06 0)
(0.00366491 1.84587e-06 0)
(0.00366084 2.17378e-06 0)
(0.00365606 2.53649e-06 0)
(0.00365051 2.93574e-06 0)
(0.00364412 3.3763e-06 0)
(0.00363677 3.86651e-06 0)
(0.00362837 4.41806e-06 0)
(0.00361879 5.03197e-06 0)
(0.00360789 5.71763e-06 0)
(0.00359551 6.48812e-06 0)
(0.00358149 7.3502e-06 0)
(0.00356558 8.31289e-06 0)
(0.00354765 9.39254e-06 0)
(0.00352734 1.06055e-05 0)
(0.0035045 1.19527e-05 0)
(0.00347867 1.34689e-05 0)
(0.00344972 1.51436e-05 0)
(0.00341701 1.70267e-05 0)
(0.00338048 1.90903e-05 0)
(0.00333927 2.14172e-05 0)
(0.00329342 2.39329e-05 0)
(0.00324181 2.67813e-05 0)
(0.0031846 2.98109e-05 0)
(0.00312044 3.32495e-05 0)
(0.00304958 3.68271e-05 0)
(0.00297051 4.09147e-05 0)
(0.00288352 4.50506e-05 0)
(0.00278712 4.9798e-05 0)
(0.00268152 5.44571e-05 0)
(0.0025655 5.97897e-05 0)
(0.00243905 6.48767e-05 0)
(0.00230152 7.06172e-05 0)
(0.00215263 7.59511e-05 0)
(0.00199251 8.17928e-05 0)
(0.00182068 8.70881e-05 0)
(0.00163813 9.26099e-05 0)
(0.00144445 9.74722e-05 0)
(0.00124133 0.000102207 0)
(0.00102872 0.000106163 0)
(0.000808895 0.000109647 0)
(0.000582248 0.000112245 0)
(0.000351454 0.000114095 0)
(0.00011731 0.000115002 0)
(0.00367843 3.19569e-07 0)
(0.003678 9.67775e-07 0)
(0.00367713 1.62562e-06 0)
(0.00367582 2.31077e-06 0)
(0.00367403 3.03339e-06 0)
(0.00367174 3.80096e-06 0)
(0.00366892 4.624e-06 0)
(0.00366553 5.51739e-06 0)
(0.00366151 6.49478e-06 0)
(0.0036568 7.57182e-06 0)
(0.00365133 8.76187e-06 0)
(0.00364503 1.00785e-05 0)
(0.00363779 1.15517e-05 0)
(0.00362951 1.31894e-05 0)
(0.00362006 1.50222e-05 0)
(0.00360932 1.70719e-05 0)
(0.0035971 1.937e-05 0)
(0.00358328 2.19404e-05 0)
(0.00356759 2.48236e-05 0)
(0.0035499 2.80421e-05 0)
(0.00352984 3.16605e-05 0)
(0.0035073 3.56807e-05 0)
(0.00348179 4.01983e-05 0)
(0.0034532 4.51979e-05 0)
(0.00342087 5.08067e-05 0)
(0.00338478 5.6971e-05 0)
(0.00334402 6.38882e-05 0)
(0.00329867 7.1418e-05 0)
(0.00324756 7.985e-05 0)
(0.00319093 8.89284e-05 0)
(0.00312731 9.90674e-05 0)
(0.00305708 0.000109837 0)
(0.00297856 0.000121813 0)
(0.00289221 0.000134339 0)
(0.00279633 0.000148149 0)
(0.00269131 0.00016235 0)
(0.0025757 0.000177797 0)
(0.00244965 0.000193394 0)
(0.00231237 0.000209997 0)
(0.00216357 0.000226423 0)
(0.00200341 0.000243379 0)
(0.00183128 0.000259718 0)
(0.0016483 0.000275902 0)
(0.00145384 0.000290908 0)
(0.00124984 0.000304933 0)
(0.00103601 0.00031715 0)
(0.000814849 0.000327566 0)
(0.000586604 0.00033559 0)
(0.000354154 0.000341158 0)
(0.000118198 0.00034396 0)
(0.00367927 5.29434e-07 0)
(0.00367885 1.59541e-06 0)
(0.00367801 2.68454e-06 0)
(0.00367673 3.81366e-06 0)
(0.003675 5.00505e-06 0)
(0.00367278 6.27152e-06 0)
(0.00367004 7.63133e-06 0)
(0.00366675 9.10774e-06 0)
(0.00366285 1.07224e-05 0)
(0.00365827 1.24971e-05 0)
(0.00365297 1.44599e-05 0)
(0.00364684 1.66398e-05 0)
(0.00363981 1.90674e-05 0)
(0.00363177 2.17735e-05 0)
(0.00362259 2.48014e-05 0)
(0.00361215 2.81923e-05 0)
(0.00360028 3.19903e-05 0)
(0.00358683 3.62398e-05 0)
(0.00357157 4.10102e-05 0)
(0.00355435 4.63383e-05 0)
(0.00353482 5.23252e-05 0)
(0.00351287 5.89839e-05 0)
(0.00348798 6.64721e-05 0)
(0.00346011 7.47557e-05 0)
(0.00342854 8.40728e-05 0)
(0.00339329 9.42947e-05 0)
(0.00335341 0.000105804 0)
(0.00330905 0.000118299 0)
(0.00325896 0.000132381 0)
(0.00320342 0.00014745 0)
(0.00314092 0.000164463 0)
(0.00307185 0.00018234 0)
(0.0029945 0.000202543 0)
(0.00290931 0.00022332 0)
(0.00281456 0.000246764 0)
(0.00271055 0.000270309 0)
(0.0025959 0.000296695 0)
(0.00247058 0.00032255 0)
(0.00233387 0.000351046 0)
(0.00218532 0.000378322 0)
(0.00202512 0.000407466 0)
(0.00185253 0.000434698 0)
(0.00166867 0.000462468 0)
(0.00147287 0.000487584 0)
(0.00126703 0.000511586 0)
(0.00105088 0.000532109 0)
(0.000826951 0.000549896 0)
(0.000595557 0.000563409 0)
(0.00035965 0.000572905 0)
(0.000120053 0.000577628 0)
(0.00368051 7.29158e-07 0)
(0.00368011 2.19913e-06 0)
(0.00367931 3.70524e-06 0)
(0.00367809 5.26498e-06 0)
(0.00367643 6.90301e-06 0)
(0.00367431 8.64883e-06 0)
(0.0036717 1.05275e-05 0)
(0.00366856 1.25638e-05 0)
(0.00366483 1.4793e-05 0)
(0.00366047 1.72417e-05 0)
(0.00365539 1.99524e-05 0)
(0.00364954 2.29601e-05 0)
(0.00364282 2.63106e-05 0)
(0.00363513 3.00509e-05 0)
(0.00362634 3.42356e-05 0)
(0.00361635 3.89174e-05 0)
(0.00360498 4.41678e-05 0)
(0.00359211 5.00409e-05 0)
(0.00357748 5.66378e-05 0)
(0.00356097 6.40113e-05 0)
(0.00354223 7.22903e-05 0)
(0.00352116 8.15124e-05 0)
(0.00349723 9.18794e-05 0)
(0.00347043 0.000103359 0)
(0.00344001 0.000116272 0)
(0.00340606 0.000130466 0)
(0.00336752 0.000146424 0)
(0.00332469 0.000163807 0)
(0.00327611 0.000183349 0)
(0.00322234 0.000204375 0)
(0.00316148 0.000227984 0)
(0.00309437 0.000253023 0)
(0.00301869 0.000281064 0)
(0.00293552 0.000310306 0)
(0.00284235 0.000342861 0)
(0.0027402 0.000376188 0)
(0.00262686 0.00041285 0)
(0.00250287 0.000449672 0)
(0.00236697 0.000489367 0)
(0.00221882 0.000528425 0)
(0.00205862 0.000569236 0)
(0.00188514 0.000608417 0)
(0.00170009 0.000647606 0)
(0.00150194 0.000683879 0)
(0.00129344 0.000718039 0)
(0.00107352 0.000747778 0)
(0.000845497 0.000773273 0)
(0.000609134 0.00079291 0)
(0.000368078 0.000806585 0)
(0.000122823 0.000813461 0)
(0.00368214 9.21093e-07 0)
(0.00368176 2.77257e-06 0)
(0.00368101 4.66686e-06 0)
(0.00367987 6.63279e-06 0)
(0.00367831 8.70075e-06 0)
(0.00367633 1.09009e-05 0)
(0.00367387 1.32668e-05 0)
(0.00367092 1.58391e-05 0)
(0.00366743 1.8645e-05 0)
(0.00366333 2.17375e-05 0)
(0.00365857 2.51559e-05 0)
(0.00365308 2.89498e-05 0)
(0.00364675 3.31826e-05 0)
(0.00363953 3.79052e-05 0)
(0.00363126 4.31887e-05 0)
(0.00362187 4.91e-05 0)
(0.00361116 5.5736e-05 0)
(0.00359904 6.3163e-05 0)
(0.00358524 7.15141e-05 0)
(0.00356967 8.08402e-05 0)
(0.00355196 9.13317e-05 0)
(0.00353204 0.000103019 0)
(0.00350938 0.000116175 0)
(0.00348399 0.000130749 0)
(0.00345508 0.000147169 0)
(0.00342282 0.000165216 0)
(0.00338606 0.000185582 0)
(0.0033452 0.000207718 0)
(0.00329868 0.000232757 0)
(0.00324712 0.000259578 0)
(0.00318855 0.000290005 0)
(0.00312382 0.000321991 0)
(0.00305059 0.000358394 0)
(0.00296981 0.000395795 0)
(0.00287907 0.000438422 0)
(0.00277909 0.000481099 0)
(0.00266785 0.000529564 0)
(0.0025455 0.000576831 0)
(0.00241097 0.000629725 0)
(0.00226352 0.000680117 0)
(0.00210344 0.000734753 0)
(0.00192927 0.000785734 0)
(0.00174256 0.000838219 0)
(0.00154184 0.00088583 0)
(0.0013296 0.000931574 0)
(0.00110497 0.00097089 0)
(0.000871142 0.00100504 0)
(0.000628176 0.00103113 0)
(0.000379772 0.00104946 0)
(0.000126786 0.00105862 0)
(0.00368412 1.09785e-06 0)
(0.00368378 3.30415e-06 0)
(0.00368309 5.55975e-06 0)
(0.00368204 7.90522e-06 0)
(0.00368061 1.037e-05 0)
(0.00367879 1.29932e-05 0)
(0.00367653 1.58157e-05 0)
(0.00367382 1.88766e-05 0)
(0.00367061 2.22265e-05 0)
(0.00366684 2.59165e-05 0)
(0.00366246 2.99949e-05 0)
(0.0036574 3.45245e-05 0)
(0.00365158 3.95734e-05 0)
(0.00364492 4.52132e-05 0)
(0.00363731 5.15286e-05 0)
(0.00362864 5.85941e-05 0)
(0.00361875 6.65259e-05 0)
(0.00360755 7.54135e-05 0)
(0.00359478 8.54031e-05 0)
(0.00358038 9.6575e-05 0)
(0.00356394 0.000109151 0)
(0.00354548 0.000123168 0)
(0.00352438 0.000138957 0)
(0.00350078 0.000156473 0)
(0.00347376 0.000176209 0)
(0.00344367 0.000197954 0)
(0.00340914 0.00022248 0)
(0.00337088 0.00024924 0)
(0.00332689 0.000279452 0)
(0.0032784 0.000312014 0)
(0.00322259 0.000348802 0)
(0.00316133 0.000387859 0)
(0.00309095 0.00043195 0)
(0.00301388 0.000477946 0)
(0.00292588 0.000529678 0)
(0.00282944 0.000582619 0)
(0.00272059 0.000641588 0)
(0.00260094 0.000700765 0)
(0.00246811 0.000765417 0)
(0.00232165 0.000829066 0)
(0.00216203 0.000896391 0)
(0.00198644 0.000961255 0)
(0.0017981 0.00102674 0)
(0.00159335 0.00108771 0)
(0.00137673 0.00114551 0)
(0.00114546 0.00119617 0)
(0.00090448 0.00123978 0)
(0.000652625 0.00127357 0)
(0.000394991 0.00129714 0)
(0.000131787 0.00130903 0)
(0.00368644 1.25469e-06 0)
(0.00368614 3.78556e-06 0)
(0.00368552 6.3736e-06 0)
(0.00368457 9.05895e-06 0)
(0.00368329 1.18851e-05 0)
(0.00368166 1.48917e-05 0)
(0.00367964 1.81277e-05 0)
(0.00367721 2.16406e-05 0)
(0.00367432 2.54861e-05 0)
(0.00367094 2.97149e-05 0)
(0.003667 3.43982e-05 0)
(0.00366246 3.96014e-05 0)
(0.00365722 4.53996e-05 0)
(0.00365123 5.18784e-05 0)
(0.00364437 5.91348e-05 0)
(0.00363656 6.72633e-05 0)
(0.00362764 7.63921e-05 0)
(0.00361752 8.66248e-05 0)
(0.00360597 9.81351e-05 0)
(0.00359292 0.000111019 0)
(0.003578 0.000125537 0)
(0.00356123 0.000141728 0)
(0.00354199 0.000159997 0)
(0.00352047 0.000180272 0)
(0.0034957 0.000203181 0)
(0.00346812 0.000228416 0)
(0.00343628 0.000256998 0)
(0.00340098 0.000288138 0)
(0.00336015 0.000323544 0)
(0.00331503 0.000361533 0)
(0.00326282 0.000404981 0)
(0.00320524 0.000450649 0)
(0.00313881 0.000503257 0)
(0.00306551 0.000557141 0)
(0.00298156 0.000619661 0)
(0.00288866 0.000681789 0)
(0.00278354 0.000754083 0)
(0.00266675 0.000823762 0)
(0.0025366 0.000904078 0)
(0.00239177 0.000979641 0)
(0.00223288 0.00106389 0)
(0.0020569 0.00114209 0)
(0.00186639 0.00122401 0)
(0.00165814 0.00129862 0)
(0.0014358 0.00137095 0)
(0.00119727 0.00143365 0)
(0.000946927 0.00148834 0)
(0.000684339 0.00153047 0)
(0.0004145 0.00156009 0)
(0.000138434 0.00157498 0)
(0.00368906 1.39714e-06 0)
(0.0036888 4.21249e-06 0)
(0.00368825 7.09188e-06 0)
(0.00368744 1.0081e-05 0)
(0.00368632 1.32247e-05 0)
(0.0036849 1.65718e-05 0)
(0.00368314 2.01713e-05 0)
(0.00368103 2.40863e-05 0)
(0.00367851 2.8367e-05 0)
(0.00367557 3.30796e-05 0)
(0.00367213 3.82987e-05 0)
(0.00366818 4.40984e-05 0)
(0.0036636 5.05664e-05 0)
(0.00365838 5.77928e-05 0)
(0.00365237 6.58946e-05 0)
(0.00364554 7.4971e-05 0)
(0.00363771 8.51761e-05 0)
(0.00362884 9.66169e-05 0)
(0.00361868 0.0001095 0)
(0.00360721 0.000123933 0)
(0.00359402 0.000140202 0)
(0.00357923 0.000158384 0)
(0.00356213 0.000178903 0)
(0.00354307 0.000201725 0)
(0.00352089 0.000227518 0)
(0.00349637 0.000256018 0)
(0.00346761 0.000288288 0)
(0.00343605 0.000323613 0)
(0.00339875 0.000363707 0)
(0.00335814 0.000407068 0)
(0.00330984 0.000456414 0)
(0.00325756 0.000508949 0)
(0.00319522 0.000568877 0)
(0.00312785 0.00063149 0)
(0.00304792 0.000702909 0)
(0.00296106 0.000775988 0)
(0.00285961 0.000858864 0)
(0.00274782 0.000941935 0)
(0.00262074 0.00103454 0)
(0.00247813 0.00112576 0)
(0.0023211 0.001224 0)
(0.00214323 0.00131933 0)
(0.00195136 0.00141676 0)
(0.00173723 0.00150853 0)
(0.00150895 0.00159623 0)
(0.0012604 0.00167406 0)
(0.000999282 0.00174141 0)
(0.000722881 0.00179415 0)
(0.00043857 0.00183101 0)
(0.000146364 0.00184975 0)
(0.00369193 1.51622e-06 0)
(0.00369171 4.57591e-06 0)
(0.00369126 7.70423e-06 0)
(0.00369058 1.09516e-05 0)
(0.00368965 1.43687e-05 0)
(0.00368847 1.80068e-05 0)
(0.003687 2.19221e-05 0)
(0.00368522 2.6174e-05 0)
(0.00368312 3.083e-05 0)
(0.00368066 3.59589e-05 0)
(0.00367779 4.16374e-05 0)
(0.00367447 4.79524e-05 0)
(0.00367064 5.49974e-05 0)
(0.00366624 6.28723e-05 0)
(0.00366119 7.17076e-05 0)
(0.00365544 8.1611e-05 0)
(0.00364883 9.27514e-05 0)
(0.00364134 0.000105252 0)
(0.00363271 0.000119342 0)
(0.00362299 0.00013514 0)
(0.00361173 0.000152974 0)
(0.00359912 0.000172922 0)
(0.00358443 0.000195472 0)
(0.00356807 0.00022058 0)
(0.00354886 0.000249035 0)
(0.00352762 0.000280487 0)
(0.00350247 0.000316266 0)
(0.00347484 0.000355389 0)
(0.00344186 0.000400155 0)
(0.0034058 0.000448337 0)
(0.00336257 0.000503962 0)
(0.00331536 0.000562518 0)
(0.00325879 0.000630978 0)
(0.00319675 0.000700902 0)
(0.00312304 0.00078395 0)
(0.00304137 0.000865634 0)
(0.00294602 0.000964103 0)
(0.00283876 0.00105713 0)
(0.0027166 0.00116952 0)
(0.00257728 0.00127272 0)
(0.0024224 0.00139323 0)
(0.00224563 0.00150415 0)
(0.00205165 0.0016229 0)
(0.00183387 0.00173217 0)
(0.00159787 0.00183909 0)
(0.00133943 0.00193331 0)
(0.00106452 0.00201578 0)
(0.000772072 0.00208027 0)
(0.000468934 0.00212559 0)
(0.000156771 0.0021486 0)
(0.00369502 1.61328e-06 0)
(0.00369485 4.86868e-06 0)
(0.0036945 8.19979e-06 0)
(0.00369396 1.16594e-05 0)
(0.00369323 1.52968e-05 0)
(0.00369229 1.91713e-05 0)
(0.00369114 2.33449e-05 0)
(0.00368975 2.78777e-05 0)
(0.00368809 3.28378e-05 0)
(0.00368615 3.83041e-05 0)
(0.00368388 4.4362e-05 0)
(0.00368125 5.10987e-05 0)
(0.00367822 5.86206e-05 0)
(0.00367474 6.70327e-05 0)
(0.00367072 7.64747e-05 0)
(0.00366615 8.70664e-05 0)
(0.00366086 9.89891e-05 0)
(0.00365488 0.000112381 0)
(0.00364794 0.000127485 0)
(0.00364014 0.000144445 0)
(0.00363101 0.000163598 0)
(0.00362084 0.000185062 0)
(0.00360879 0.000209348 0)
(0.00359552 0.000236457 0)
(0.00357956 0.00026719 0)
(0.0035622 0.000301295 0)
(0.00354095 0.00034007 0)
(0.00351819 0.000382733 0)
(0.00348977 0.000431432 0)
(0.00345979 0.000484374 0)
(0.00342165 0.000545123 0)
(0.00338193 0.000610121 0)
(0.00333073 0.000685162 0)
(0.00327764 0.000763822 0)
(0.00320923 0.000855156 0)
(0.00313747 0.000948601 0)
(0.00304711 0.00105724 0)
(0.00294896 0.00116572 0)
(0.00283183 0.00129035 0)
(0.00269719 0.00141282 0)
(0.00254771 0.00154827 0)
(0.0023681 0.00168121 0)
(0.00217463 0.00181921 0)
(0.00194892 0.00195161 0)
(0.0017059 0.00207947 0)
(0.00143342 0.00219506 0)
(0.00114318 0.00229595 0)
(0.0008304 0.00237616 0)
(0.000505486 0.00243246 0)
(0.000168898 0.00246133 0)
(0.00369829 1.68853e-06 0)
(0.00369816 5.09344e-06 0)
(0.00369791 8.57585e-06 0)
(0.00369753 1.21932e-05 0)
(0.00369701 1.59985e-05 0)
(0.00369634 2.00501e-05 0)
(0.00369552 2.4417e-05 0)
(0.00369452 2.9161e-05 0)
(0.00369334 3.43565e-05 0)
(0.00369195 4.00835e-05 0)
(0.00369032 4.64298e-05 0)
(0.00368843 5.34898e-05 0)
(0.00368624 6.1381e-05 0)
(0.00368372 7.02121e-05 0)
(0.00368081 8.01248e-05 0)
(0.00367748 9.12572e-05 0)
(0.00367361 0.000103793 0)
(0.00366924 0.000117888 0)
(0.0036641 0.000133804 0)
(0.00365835 0.000151693 0)
(0.00365151 0.000171926 0)
(0.00364391 0.000194628 0)
(0.00363475 0.000220359 0)
(0.00362471 0.000249121 0)
(0.00361235 0.000281821 0)
(0.00359898 0.000318147 0)
(0.00358221 0.000359635 0)
(0.00356429 0.000405271 0)
(0.00354138 0.000457779 0)
(0.00351713 0.000514666 0)
(0.0034857 0.000580896 0)
(0.00345248 0.000651 0)
(0.00340928 0.00073412 0)
(0.0033632 0.000819123 0)
(0.00330397 0.00092264 0)
(0.00323924 0.00102345 0)
(0.00315862 0.00115053 0)
(0.00306702 0.00126698 0)
(0.00295855 0.00141817 0)
(0.00282982 0.00155029 0)
(0.00268521 0.00171758 0)
(0.00251094 0.00186952 0)
(0.0023164 0.00203534 0)
(0.00208872 0.0021918 0)
(0.00183626 0.00234569 0)
(0.0015514 0.00248536 0)
(0.00124184 0.0026079 0)
(0.00090574 0.00270591 0)
(0.000552339 0.00277479 0)
(0.000185041 0.00281028 0)
(0.00370167 1.73535e-06 0)
(0.00370159 5.23841e-06 0)
(0.00370145 8.8239e-06 0)
(0.00370123 1.25425e-05 0)
(0.00370093 1.64593e-05 0)
(0.00370054 2.06321e-05 0)
(0.00370006 2.51247e-05 0)
(0.00369948 3.00074e-05 0)
(0.00369878 3.53592e-05 0)
(0.00369797 4.1263e-05 0)
(0.00369701 4.78053e-05 0)
(0.0036959 5.50889e-05 0)
(0.00369459 6.32318e-05 0)
(0.00369309 7.23472e-05 0)
(0.00369132 8.25882e-05 0)
(0.00368932 9.40972e-05 0)
(0.00368694 0.000107069 0)
(0.00368427 0.000121673 0)
(0.00368104 0.000138169 0)
(0.00367747 0.000156739 0)
(0.00367305 0.000177763 0)
(0.00366826 0.0002014 0)
(0.00366215 0.00022821 0)
(0.0036557 0.000258274 0)
(0.00364714 0.000292462 0)
(0.00363839 0.000330619 0)
(0.00362626 0.000374167 0)
(0.00361428 0.000422422 0)
(0.00359688 0.000477788 0)
(0.00358034 0.000538481 0)
(0.00355514 0.000608646 0)
(0.00353196 0.00068436 0)
(0.00349535 0.000772823 0)
(0.00346223 0.000866168 0)
(0.00340929 0.000976731 0)
(0.0033606 0.00108995 0)
(0.00328558 0.00122593 0)
(0.00321101 0.00136045 0)
(0.00310924 0.00152236 0)
(0.00299036 0.0016791 0)
(0.00286029 0.00185986 0)
(0.00267924 0.00204063 0)
(0.0024902 0.0022315 0)
(0.00225282 0.00241988 0)
(0.00199334 0.00260414 0)
(0.00169016 0.00277522 0)
(0.00135914 0.00292657 0)
(0.000993811 0.00304956 0)
(0.000607675 0.00313659 0)
(0.000203641 0.00318176 0)
(0.00370512 1.75888e-06 0)
(0.00370509 5.30437e-06 0)
(0.00370506 8.93393e-06 0)
(0.003705 1.27049e-05 0)
(0.00370493 1.66724e-05 0)
(0.00370483 2.09009e-05 0)
(0.0037047 2.54553e-05 0)
(0.00370455 3.04074e-05 0)
(0.00370436 3.58334e-05 0)
(0.00370413 4.18205e-05 0)
(0.00370386 4.84655e-05 0)
(0.00370353 5.58617e-05 0)
(0.00370314 6.41328e-05 0)
(0.00370268 7.34008e-05 0)
(0.0037021 8.38212e-05 0)
(0.00370146 9.55396e-05 0)
(0.00370061 0.000108758 0)
(0.00369969 0.000123653 0)
(0.00369844 0.000140496 0)
(0.00369712 0.000159485 0)
(0.00369524 0.000181002 0)
(0.00369331 0.000205239 0)
(0.00369044 0.000232772 0)
(0.00368762 0.00026371 0)
(0.00368319 0.000298969 0)
(0.00367899 0.00033841 0)
(0.0036721 0.000383578 0)
(0.00366576 0.000433722 0)
(0.00365502 0.000491586 0)
(0.00364526 0.000555029 0)
(0.00362854 0.000629168 0)
(0.00361323 0.000708762 0)
(0.00358731 0.000803783 0)
(0.00356287 0.000902236 0)
(0.00352309 0.00102416 0)
(0.00348326 0.00114306 0)
(0.00342349 0.00129971 0)
(0.00335727 0.00143792 0)
(0.00327056 0.00163742 0)
(0.0031603 0.00179277 0)
(0.00303921 0.00202523 0)
(0.00287483 0.00223211 0)
(0.00268776 0.00245561 0)
(0.0024536 0.00267954 0)
(0.00218419 0.00289919 0)
(0.00186712 0.00310812 0)
(0.00151047 0.00329212 0)
(0.00111138 0.00344363 0)
(0.000681788 0.00355059 0)
(0.00022927 0.00360663 0)
(0.00370858 1.75808e-06 0)
(0.00370862 5.29503e-06 0)
(0.00370869 8.91329e-06 0)
(0.0037088 1.26724e-05 0)
(0.00370895 1.66311e-05 0)
(0.00370914 2.08531e-05 0)
(0.00370937 2.54002e-05 0)
(0.00370965 3.03445e-05 0)
(0.00370996 3.57671e-05 0)
(0.00371034 4.175e-05 0)
(0.00371075 4.83911e-05 0)
(0.00371124 5.57901e-05 0)
(0.00371176 6.40695e-05 0)
(0.00371237 7.33527e-05 0)
(0.003713 8.379e-05 0)
(0.00371374 9.5545e-05 0)
(0.00371447 0.000108809 0)
(0.00371535 0.000123773 0)
(0.00371613 0.000140712 0)
(0.00371713 0.000159836 0)
(0.00371786 0.00018153 0)
(0.00371896 0.000206019 0)
(0.00371941 0.000233856 0)
(0.00372052 0.000265239 0)
(0.00372029 0.000301023 0)
(0.00372124 0.000341249 0)
(0.00371959 0.000387292 0)
(0.00372005 0.000438806 0)
(0.00371566 0.000498101 0)
(0.00371505 0.000563905 0)
(0.00370567 0.000640326 0)
(0.00370294 0.000724002 0)
(0.0036848 0.000822539 0)
(0.00367803 0.000928046 0)
(0.0036451 0.00105511 0)
(0.00363041 0.00118619 0)
(0.00357429 0.0013496 0)
(0.00354169 0.00150866 0)
(0.00345671 0.00171515 0)
(0.00337009 0.00190391 0)
(0.00329048 0.00213868 0)
(0.00310066 0.00238228 0)
(0.00292831 0.00264227 0)
(0.00268715 0.00291022 0)
(0.00241299 0.00317615 0)
(0.00207491 0.00343212 0)
(0.00168766 0.00366418 0)
(0.00124691 0.00385851 0)
(0.000767276 0.00399815 0)
(0.000258505 0.0040717 0)
(0.00371202 1.72385e-06 0)
(0.00371211 5.19842e-06 0)
(0.00371229 8.75602e-06 0)
(0.00371257 1.2451e-05 0)
(0.00371294 1.63415e-05 0)
(0.00371341 2.04905e-05 0)
(0.003714 2.49594e-05 0)
(0.0037147 2.98249e-05 0)
(0.00371552 3.5159e-05 0)
(0.00371649 4.10472e-05 0)
(0.0037176 4.75845e-05 0)
(0.00371888 5.48722e-05 0)
(0.00372033 6.30316e-05 0)
(0.00372199 7.21847e-05 0)
(0.00372383 8.24868e-05 0)
(0.00372595 9.40914e-05 0)
(0.00372825 0.000107203 0)
(0.00373093 0.000122011 0)
(0.00373375 0.000138785 0)
(0.00373708 0.000157754 0)
(0.00374045 0.000179285 0)
(0.00374455 0.000203647 0)
(0.00374843 0.000231372 0)
(0.00375339 0.000262718 0)
(0.00375761 0.000298495 0)
(0.00376347 0.000338875 0)
(0.00376762 0.000385142 0)
(0.00377426 0.000437181 0)
(0.00377752 0.000497154 0)
(0.00378452 0.000564164 0)
(0.00378529 0.000642119 0)
(0.00379165 0.000728157 0)
(0.0037871 0.000829911 0)
(0.00379059 0.000939489 0)
(0.00377586 0.00107343 0)
(0.00377161 0.00121001 0)
(0.00373924 0.00139041 0)
(0.0037152 0.00154989 0)
(0.00365757 0.00181042 0)
(0.003575 0.00195263 0)
(0.00350761 0.00229295 0)
(0.00336792 0.00258756 0)
(0.00320469 0.00286392 0)
(0.00297634 0.00318646 0)
(0.00269521 0.00350211 0)
(0.00234498 0.00382135 0)
(0.00192796 0.00410616 0)
(0.00143839 0.00434768 0)
(0.00089054 0.00452117 0)
(0.000301276 0.0046136 0)
(0.00371536 1.66526e-06 0)
(0.00371551 5.02783e-06 0)
(0.00371579 8.46772e-06 0)
(0.00371623 1.20391e-05 0)
(0.00371682 1.58021e-05 0)
(0.00371758 1.98136e-05 0)
(0.00371851 2.41409e-05 0)
(0.00371963 2.88483e-05 0)
(0.00372095 3.40145e-05 0)
(0.0037225 3.97165e-05 0)
(0.00372429 4.60493e-05 0)
(0.00372636 5.31165e-05 0)
(0.00372871 6.10286e-05 0)
(0.00373142 6.99148e-05 0)
(0.00373445 7.99188e-05 0)
(0.00373794 9.11996e-05 0)
(0.0037418 0.000103949 0)
(0.00374627 0.000118367 0)
(0.00375112 0.000134711 0)
(0.00375679 0.000153228 0)
(0.00376279 0.000174265 0)
(0.00376995 0.000198114 0)
(0.00377724 0.000225282 0)
(0.00378624 0.000256097 0)
(0.00379486 0.00029129 0)
(0.00380608 0.0003312 0)
(0.00381584 0.000376933 0)
(0.00382972 0.000428725 0)
(0.00384 0.000488368 0)
(0.003857 0.000555693 0)
(0.00386625 0.000633795 0)
(0.00388682 0.000721352 0)
(0.00389172 0.000824203 0)
(0.00391647 0.0009378 0)
(0.00390999 0.00107449 0)
(0.00394077 0.00122032 0)
(0.0039071 0.00140575 0)
(0.00395296 0.00158647 0)
(0.00385106 0.00185284 0)
(0.0039579 0.0020491 0)
(0.00383064 0.00231664 0)
(0.00356079 0.00237578 0)
(0.00345775 0.00270288 0)
(0.003281 0.00307358 0)
(0.00303951 0.00345255 0)
(0.00270879 0.00384334 0)
(0.00228214 0.00422536 0)
(0.00176467 0.00457591 0)
(0.00117018 0.00485772 0)
(0.000517035 0.00504455 0)
(0.00371857 1.58444e-06 0)
(0.00371876 4.77977e-06 0)
(0.00371916 8.04762e-06 0)
(0.00371975 1.14436e-05 0)
(0.00372055 1.50196e-05 0)
(0.00372158 1.88347e-05 0)
(0.00372284 2.2952e-05 0)
(0.00372437 2.74302e-05 0)
(0.00372617 3.23488e-05 0)
(0.00372828 3.7777e-05 0)
(0.00373072 4.38085e-05 0)
(0.00373355 5.05419e-05 0)
(0.00373677 5.80846e-05 0)
(0.00374049 6.65592e-05 0)
(0.00374468 7.61061e-05 0)
(0.00374949 8.68848e-05 0)
(0.00375486 9.90731e-05 0)
(0.00376106 0.000112871 0)
(0.00376788 0.000128522 0)
(0.00377581 0.00014628 0)
(0.00378441 0.000166471 0)
(0.00379451 0.000189418 0)
(0.00380521 0.000215566 0)
(0.00381802 0.000245331 0)
(0.00383115 0.000279318 0)
(0.00384732 0.000318074 0)
(0.00386312 0.000362423 0)
(0.00388337 0.000413084 0)
(0.00390184 0.00047118 0)
(0.00392692 0.000537713 0)
(0.00394751 0.00061413 0)
(0.0039781 0.000701976 0)
(0.00399904 0.000802836 0)
(0.00403566 0.000919596 0)
(0.00405249 0.00105276 0)
(0.00409598 0.00120958 0)
(0.00409776 0.00138352 0)
(0.00415298 0.00159923 0)
(0.00411056 0.00181436 0)
(0.00420774 0.00213382 0)
(0.00423705 0.00236159 0)
(0.00388841 0.00253414 0)
(0.00381344 0.00291749 0)
(0.00366956 0.00334297 0)
(0.00344602 0.00379536 0)
(0.00312324 0.00425687 0)
(0.00265659 0.00473665 0)
(0.00207774 0.00518138 0)
(0.00139066 0.00554043 0)
(0.000617351 0.0057706 0)
(0.00372159 1.47658e-06 0)
(0.00372183 4.45411e-06 0)
(0.00372232 7.50309e-06 0)
(0.00372306 1.06719e-05 0)
(0.00372406 1.40117e-05 0)
(0.00372534 1.75704e-05 0)
(0.00372692 2.14097e-05 0)
(0.00372883 2.55922e-05 0)
(0.00373108 3.01831e-05 0)
(0.00373373 3.52543e-05 0)
(0.00373679 4.08915e-05 0)
(0.00374034 4.71878e-05 0)
(0.00374439 5.42392e-05 0)
(0.00374907 6.21706e-05 0)
(0.00375435 7.11119e-05 0)
(0.00376043 8.12117e-05 0)
(0.00376725 9.26378e-05 0)
(0.00377511 0.000105591 0)
(0.00378383 0.000120293 0)
(0.00379395 0.000136998 0)
(0.00380503 0.000156007 0)
(0.00381803 0.000177657 0)
(0.00383199 0.000202349 0)
(0.00384867 0.000230537 0)
(0.00386608 0.000262757 0)
(0.00388745 0.000299631 0)
(0.00390887 0.000341881 0)
(0.00393622 0.000390388 0)
(0.00396204 0.000446103 0)
(0.00399697 0.000510315 0)
(0.00402709 0.000584263 0)
(0.00407159 0.000669903 0)
(0.00410481 0.000768715 0)
(0.00416119 0.000883951 0)
(0.00419393 0.00101677 0)
(0.00426464 0.00117368 0)
(0.00428863 0.00135216 0)
(0.00437483 0.00157012 0)
(0.00437451 0.00180346 0)
(0.00446676 0.00212158 0)
(0.00463292 0.00235604 0)
(0.00426095 0.00264423 0)
(0.00423002 0.00307843 0)
(0.0041305 0.00357312 0)
(0.00394522 0.00411527 0)
(0.00367514 0.00463738 0)
(0.0031367 0.00526795 0)
(0.00249173 0.00585886 0)
(0.00169072 0.00634028 0)
(0.000754493 0.00664672 0)
(0.00372438 1.34661e-06 0)
(0.00372467 4.06425e-06 0)
(0.00372524 6.84815e-06 0)
(0.00372612 9.73676e-06 0)
(0.0037273 1.27824e-05 0)
(0.00372882 1.60363e-05 0)
(0.00373069 1.95407e-05 0)
(0.00373295 2.3358e-05 0)
(0.00373562 2.75501e-05 0)
(0.00373876 3.21844e-05 0)
(0.0037424 3.73382e-05 0)
(0.00374662 4.30953e-05 0)
(0.00375145 4.95461e-05 0)
(0.00375701 5.68059e-05 0)
(0.00376332 6.49927e-05 0)
(0.00377057 7.42437e-05 0)
(0.00377874 8.47217e-05 0)
(0.00378813 9.66112e-05 0)
(0.00379864 0.000110113 0)
(0.00381078 0.000125477 0)
(0.00382422 0.000142968 0)
(0.00383989 0.000162937 0)
(0.00385698 0.00018571 0)
(0.00387717 0.000211804 0)
(0.0038988 0.000241599 0)
(0.0039248 0.000275912 0)
(0.00395198 0.000315108 0)
(0.00398542 0.000360566 0)
(0.00401927 0.000412429 0)
(0.0040622 0.000473238 0)
(0.00410377 0.000542273 0)
(0.0041587 0.000624604 0)
(0.00420863 0.000717023 0)
(0.00427855 0.00083028 0)
(0.00433618 0.000954457 0)
(0.00442437 0.0011136 0)
(0.00448594 0.00128019 0)
(0.00459487 0.00151008 0)
(0.00465052 0.00173109 0)
(0.00477489 0.00207359 0)
(0.00501088 0.00230009 0)
(0.00467347 0.00268748 0)
(0.00470635 0.00317127 0)
(0.00466887 0.00374763 0)
(0.00452298 0.00444351 0)
(0.00430153 0.00529962 0)
(0.0038026 0.00611268 0)
(0.00304478 0.00688879 0)
(0.00201963 0.00754196 0)
(0.00077376 0.00794378 0)
(0.0037269 1.19874e-06 0)
(0.00372722 3.61407e-06 0)
(0.00372788 6.0842e-06 0)
(0.00372887 8.6535e-06 0)
(0.00373022 1.13599e-05 0)
(0.00373196 1.42495e-05 0)
(0.0037341 1.73676e-05 0)
(0.00373667 2.07626e-05 0)
(0.00373973 2.44929e-05 0)
(0.00374331 2.86158e-05 0)
(0.00374747 3.32017e-05 0)
(0.00375229 3.83267e-05 0)
(0.00375783 4.4074e-05 0)
(0.00376419 5.0546e-05 0)
(0.00377143 5.78421e-05 0)
(0.00377975 6.60986e-05 0)
(0.00378915 7.54531e-05 0)
(0.00379996 8.60754e-05 0)
(0.00381209 9.81469e-05 0)
(0.00382612 0.000111898 0)
(0.00384171 0.000127565 0)
(0.00385988 0.000145486 0)
(0.00387984 0.000165941 0)
(0.00390339 0.000189426 0)
(0.00392886 0.000216283 0)
(0.00395943 0.000247292 0)
(0.00399177 0.000282787 0)
(0.00403152 0.000324071 0)
(0.00407235 0.000371347 0)
(0.00412411 0.000426906 0)
(0.0041753 0.000490425 0)
(0.0042427 0.000566198 0)
(0.00430621 0.000652368 0)
(0.00439369 0.000757499 0)
(0.00447135 0.000875558 0)
(0.00458359 0.00102467 0)
(0.00467684 0.00118773 0)
(0.00481633 0.00140526 0)
(0.00492628 0.00163142 0)
(0.00508542 0.00195925 0)
(0.00539346 0.00217801 0)
(0.00512419 0.00264809 0)
(0.0052431 0.0031682 0)
(0.0053048 0.00380174 0)
(0.00527151 0.00456045 0)
(0.00521713 0.00565477 0)
(0.00477356 0.00671177 0)
(0.00396965 0.00781027 0)
(0.00273625 0.00879783 0)
(0.00110852 0.00943625 0)
(0.00372909 1.02991e-06 0)
(0.00372945 3.10329e-06 0)
(0.00373018 5.22918e-06 0)
(0.00373128 7.43769e-06 0)
(0.00373279 9.76365e-06 0)
(0.0037347 1.22443e-05 0)
(0.00373707 1.49229e-05 0)
(0.00373993 1.78451e-05 0)
(0.00374331 2.10517e-05 0)
(0.00374729 2.4599e-05 0)
(0.00375191 2.85443e-05 0)
(0.00375726 3.29557e-05 0)
(0.00376341 3.79062e-05 0)
(0.00377048 4.34776e-05 0)
(0.00377855 4.97657e-05 0)
(0.0037878 5.68857e-05 0)
(0.0037983 6.49508e-05 0)
(0.00381035 7.41224e-05 0)
(0.00382393 8.45427e-05 0)
(0.00383959 9.64374e-05 0)
(0.00385711 0.000109992 0)
(0.00387745 0.00012552 0)
(0.00390001 0.000143239 0)
(0.00392646 0.000163661 0)
(0.00395546 0.000186978 0)
(0.00398992 0.00021405 0)
(0.00402717 0.00024494 0)
(0.00407214 0.000281214 0)
(0.00411996 0.000322458 0)
(0.00417879 0.0003717 0)
(0.00424016 0.00042726 0)
(0.00431727 0.000495242 0)
(0.00439594 0.000570888 0)
(0.00449708 0.00066674 0)
(0.00459779 0.000771052 0)
(0.00473004 0.000909643 0)
(0.00485861 0.00105593 0)
(0.00502931 0.0012619 0)
(0.00519297 0.00147243 0)
(0.00540491 0.00178615 0)
(0.00576311 0.00198247 0)
(0.00559918 0.00251121 0)
(0.00582732 0.00305121 0)
(0.0060251 0.00373156 0)
(0.00615679 0.00458606 0)
(0.00631741 0.005856 0)
(0.00605043 0.00723903 0)
(0.00529255 0.00880903 0)
(0.00382669 0.0103724 0)
(0.00162221 0.0114833 0)
(0.00373094 8.44356e-07 0)
(0.00373133 2.54659e-06 0)
(0.00373211 4.28967e-06 0)
(0.00373331 6.10237e-06 0)
(0.00373494 8.01474e-06 0)
(0.00373702 1.00527e-05 0)
(0.00373957 1.2251e-05 0)
(0.00374267 1.46491e-05 0)
(0.00374634 1.72824e-05 0)
(0.00375065 2.01971e-05 0)
(0.00375565 2.34395e-05 0)
(0.00376146 2.7065e-05 0)
(0.00376812 3.11345e-05 0)
(0.00377581 3.57159e-05 0)
(0.00378456 4.08905e-05 0)
(0.00379462 4.675e-05 0)
(0.00380603 5.33934e-05 0)
(0.00381915 6.09517e-05 0)
(0.00383395 6.95451e-05 0)
(0.00385103 7.93614e-05 0)
(0.00387019 9.05498e-05 0)
(0.00389244 0.000103389 0)
(0.00391718 0.000118052 0)
(0.00394622 0.000134971 0)
(0.0039782 0.000154321 0)
(0.00401618 0.000176816 0)
(0.00405753 0.000202552 0)
(0.00410741 0.000232793 0)
(0.00416095 0.000267353 0)
(0.00422673 0.000308571 0)
(0.00429627 0.000355503 0)
(0.00438333 0.000412683 0)
(0.00447413 0.000477315 0)
(0.00458967 0.00055842 0)
(0.00470919 0.000648971 0)
(0.00486254 0.000767204 0)
(0.00502177 0.000896965 0)
(0.00522416 0.00107491 0)
(0.00543961 0.00126695 0)
(0.00570289 0.00154385 0)
(0.00610614 0.00170323 0)
(0.00607743 0.00226411 0)
(0.00643359 0.00279575 0)
(0.00680262 0.00349112 0)
(0.00715946 0.00441012 0)