/*--------------------------------*- C++ -*----------------------------------*\
| =========                 |                                                 |
| \\      /  F ield         | foam-extend: Open Source CFD                    |
|  \\    /   O peration     | Version:     4.0                                |
|   \\  /    A nd           | Web:         http://www.foam-extend.org         |
|    \\/     M anipulation  |                                                 |
\*---------------------------------------------------------------------------*/
FoamFile
{
    version     2.0;
    format      ascii;
    class       volScalarField;
    location    "0.0007";
    object      k;
}
// * * * * * * * * * * * * * * * * * * * * * * * * * * * * * * * * * * * * * //

dimensions      [0 2 -2 0 0 0 0];

internalField   nonuniform List<scalar> 
28770
(
1.03456e-06
2.53905e-06
3.81656e-06
4.97899e-06
6.03267e-06
6.99483e-06
7.86656e-06
8.65054e-06
9.34946e-06
9.9667e-06
1.05063e-05
1.09728e-05
1.13714e-05
1.17073e-05
1.19858e-05
1.22123e-05
1.23915e-05
1.25276e-05
1.26242e-05
1.26837e-05
1.27078e-05
1.2697e-05
1.26507e-05
1.25672e-05
1.24439e-05
1.22774e-05
1.20637e-05
1.17983e-05
1.14769e-05
1.10957e-05
1.06514e-05
1.01425e-05
9.56893e-06
8.93295e-06
8.23932e-06
7.49554e-06
6.71199e-06
5.90182e-06
5.08073e-06
4.26653e-06
3.47845e-06
2.73626e-06
2.05908e-06
1.46415e-06
9.654e-07
5.72198e-07
2.88117e-07
1.09557e-07
2.34811e-08
1.69335e-09
3.13147e-05
7.5799e-05
0.000113655
0.000148145
0.000179441
0.000208005
0.000233886
0.000257163
0.000277915
0.000296242
0.000312263
0.000326115
0.000337948
0.00034792
0.000356191
0.000362915
0.000368234
0.000372275
0.00037514
0.000376905
0.000377618
0.000377293
0.000375912
0.000373424
0.000369752
0.000364795
0.000358432
0.000350533
0.000340968
0.000329621
0.000316402
0.000301259
0.000284195
0.000265275
0.000244643
0.000222521
0.00019922
0.000175131
0.00015072
0.000126519
0.000103099
8.1047e-05
6.09333e-05
4.32693e-05
2.8469e-05
1.68106e-05
8.39988e-06
3.13059e-06
6.19291e-07
2.52295e-08
0.000207659
0.000523588
0.000785371
0.00102155
0.00123596
0.00143147
0.00160864
0.00176798
0.00191004
0.00203549
0.00214516
0.00223997
0.00232095
0.0023892
0.0024458
0.00249181
0.0025282
0.00255583
0.0025754
0.00258742
0.00259222
0.00258989
0.00258029
0.00256306
0.00253769
0.00250346
0.00245953
0.00240502
0.00233902
0.00226075
0.00216958
0.00206517
0.00194753
0.00181715
0.00167501
0.00152266
0.00136224
0.00119647
0.00102857
0.000862194
0.000701289
0.000549906
0.000411967
0.000290997
0.000189848
0.000110446
5.35838e-05
1.87113e-05
3.23608e-06
1.17979e-07
0.000688444
0.00182208
0.0027571
0.00358598
0.00433403
0.00501412
0.0056299
0.00618352
0.00667701
0.00711276
0.0074936
0.00782281
0.00810398
0.00834089
0.00853732
0.00869695
0.00882315
0.00891889
0.00898658
0.009028
0.00904421
0.0090355
0.00900136
0.00894054
0.00885113
0.00873062
0.00857607
0.00838433
0.00815228
0.00787712
0.00755669
0.00718982
0.00677662
0.00631879
0.00581987
0.00528538
0.00472288
0.00414192
0.00355389
0.00297165
0.00240911
0.00188055
0.00139983
0.000979424
0.000629584
0.000357491
0.00016652
5.45279e-05
8.76789e-06
3.09286e-07
0.00161879
0.00444537
0.00681409
0.00888926
0.0107449
0.012422
0.0139363
0.0152959
0.016507
0.0175758
0.0185096
0.0193166
0.0200056
0.020586
0.0210671
0.0214579
0.0217667
0.0220006
0.0221656
0.022266
0.0223043
0.022281
0.0221948
0.0220425
0.0218192
0.0215187
0.0211336
0.0206559
0.020078
0.0193928
0.0185952
0.0176821
0.0166541
0.0155156
0.0142753
0.0129474
0.0115507
0.0101093
0.00865153
0.00720969
0.00581861
0.00451425
0.00333165
0.00230277
0.00145419
0.000804668
0.000361588
0.000113404
1.76071e-05
6.12515e-07
0.00312163
0.0087855
0.0136418
0.0178851
0.0216501
0.025029
0.028066
0.0307853
0.0332035
0.0353354
0.0371968
0.0388045
0.0401766
0.0413318
0.042289
0.043066
0.0436794
0.0441435
0.0444699
0.044667
0.0447396
0.0446886
0.0445109
0.0441999
0.0437455
0.0431347
0.0423526
0.0413829
0.0402101
0.03882
0.0372021
0.0353506
0.0332667
0.0309597
0.0284482
0.0257606
0.0229362
0.0200239
0.0170821
0.0141768
0.0113797
0.0087652
0.0064064
0.00437021
0.00271171
0.0014669
0.000641667
0.000195936
2.98669e-05
1.0317e-06
0.00528998
0.015126
0.0237489
0.0313133
0.0379977
0.0439587
0.0492883
0.0540424
0.0582593
0.0619706
0.0652067
0.0679993
0.0703808
0.0723847
0.0740438
0.0753897
0.0764511
0.0772526
0.0778144
0.0781507
0.0782693
0.0781713
0.0778509
0.0772958
0.0764876
0.0754033
0.0740157
0.0722964
0.0702174
0.0677539
0.0648872
0.0616079
0.0579184
0.053836
0.0493944
0.0446456
0.0396598
0.0345254
0.0293472
0.024244
0.0193453
0.0147863
0.0107001
0.00720726
0.00440271
0.0023388
0.00100369
0.000301364
4.54432e-05
1.56352e-06
0.00817973
0.0236274
0.0374287
0.0496245
0.0603957
0.0699585
0.0784663
0.0860233
0.0927046
0.0985705
0.103676
0.108076
0.111824
0.114975
0.117582
0.119694
0.121357
0.122611
0.123486
0.124004
0.124178
0.124007
0.123482
0.122581
0.121276
0.119528
0.117293
0.114524
0.111178
0.107214
0.102602
0.0973286
0.0913983
0.0848405
0.0777116
0.0700975
0.062114
0.0539061
0.0456456
0.0375269
0.0297626
0.0225748
0.0161814
0.0107751
0.00649581
0.00340248
0.00144054
0.000427736
6.40364e-05
2.19696e-06
0.0118077
0.034324
0.0547514
0.0729535
0.0890617
0.103329
0.115973
0.127157
0.13701
0.145636
0.153127
0.159571
0.165052
0.169653
0.173455
0.176532
0.178952
0.180771
0.182035
0.182775
0.183006
0.18273
0.181929
0.180571
0.178611
0.17599
0.172642
0.168498
0.16349
0.15756
0.150663
0.142779
0.133919
0.124129
0.113497
0.102156
0.0902855
0.0781071
0.0658825
0.0539071
0.0425025
0.0320046
0.0227412
0.014992
0.00893944
0.00463164
0.00194183
0.000572131
8.51899e-05
2.91399e-06
0.0161539
0.0471277
0.0755707
0.101119
0.12381
0.143897
0.161648
0.177297
0.191035
0.203024
0.213408
0.222321
0.229888
0.236231
0.241464
0.245693
0.249012
0.2515
0.25322
0.254213
0.254501
0.254081
0.252927
0.250993
0.248213
0.244503
0.239769
0.233912
0.226837
0.218461
0.208723
0.197599
0.185104
0.171312
0.156352
0.14042
0.123779
0.10675
0.0897101
0.0730775
0.0573049
0.0428642
0.0302178
0.0197484
0.0116689
0.00599392
0.00249466
0.000730989
0.000108372
3.69585e-06
0.0211634
0.0618332
0.0995276
0.133638
0.164066
0.191019
0.214802
0.235711
0.254008
0.269928
0.283678
0.295451
0.305425
0.31377
0.320642
0.326186
0.330528
0.333773
0.336002
0.337271
0.337605
0.336998
0.335413
0.332786
0.329024
0.324013
0.317627
0.30973
0.300194
0.288909
0.275796
0.260823
0.24402
0.225491
0.205423
0.184093
0.161867
0.139192
0.116582
0.0945979
0.0738298
0.0548935
0.0384152
0.0249139
0.0146115
0.00745574
0.00308625
0.000901003
0.000133112
4.52914e-06
0.0267524
0.0781313
0.126094
0.169787
0.208929
0.243657
0.274281
0.301153
0.324608
0.344956
0.362483
0.37745
0.390102
0.400664
0.409346
0.416335
0.421796
0.425863
0.42864
0.430196
0.430561
0.429723
0.427632
0.424201
0.419309
0.412806
0.404525
0.394292
0.38194
0.367327
0.350357
0.330991
0.309278
0.285362
0.259502
0.232075
0.203575
0.174603
0.14583
0.117967
0.0917255
0.0678318
0.0471183
0.0303365
0.0176913
0.00899271
0.00371159
0.00108196
0.000159361
5.4139e-06
0.0328151
0.0956445
0.154625
0.208662
0.257248
0.300455
0.338564
0.371962
0.401054
0.426231
0.447859
0.466283
0.481819
0.494761
0.505376
0.513902
0.520546
0.525478
0.528824
0.530667
0.531042
0.52993
0.527267
0.522939
0.516791
0.508634
0.498258
0.485442
0.469979
0.451695
0.43047
0.406266
0.379153
0.349327
0.31713
0.28306
0.247766
0.212031
0.176717
0.142689
0.110712
0.0814782
0.0561094
0.0358344
0.0208253
0.0105991
0.00438106
0.00128054
0.000188342
6.40944e-06
0.0392251
0.113942
0.18439
0.249189
0.307677
0.35984
0.405869
0.446181
0.481244
0.511524
0.537477
0.559531
0.578085
0.593505
0.606125
0.61624
0.6241
0.629913
0.633832
0.635953
0.636316
0.634895
0.631607
0.62631
0.618813
0.608883
0.596263
0.580685
0.561899
0.539694
0.513931
0.484572
0.451714
0.41561
0.376699
0.335618
0.293199
0.250446
0.208466
0.168317
0.130716
0.0957466
0.0651806
0.0412243
0.0239611
0.0123182
0.00513178
0.00150846
0.000220643
7.42136e-06
0.0458395
0.132562
0.214585
0.290284
0.358885
0.420169
0.474318
0.521734
0.562932
0.598455
0.628839
0.654603
0.67623
0.694166
0.708812
0.720523
0.729601
0.73629
0.74077
0.743154
0.743483
0.741726
0.737777
0.731467
0.722566
0.710795
0.695847
0.677406
0.655177
0.628913
0.598456
0.56377
0.524981
0.482406
0.436586
0.388307
0.338607
0.288763
0.240232
0.194462
0.152199
0.110447
0.0738611
0.046282
0.0272491
0.014419
0.00609327
0.00181394
0.000259224
8.4175e-06
0.0525049
0.151052
0.244465
0.330943
0.409481
0.479789
0.542047
0.596558
0.643886
0.684645
0.719452
0.748909
0.773587
0.794011
0.810655
0.823934
0.834201
0.84174
0.846758
0.849384
0.849662
0.847552
0.842929
0.835592
0.825272
0.811644
0.794352
0.773029
0.747336
0.716992
0.68182
0.641788
0.597049
0.547987
0.495242
0.439748
0.382749
0.325823
0.270908
0.220424
0.192439
0.132963
0.0871583
0.0550613
0.0339913
0.0192654
0.00900637
0.00293883
0.000555607
2.03561e-05
0.0590606
0.168978
0.273314
0.370136
0.458201
0.53726
0.607337
0.668732
0.722016
0.767865
0.806968
0.840009
0.867641
0.890468
0.909034
0.923817
0.935221
0.943567
0.94909
0.951936
0.95215
0.949685
0.944394
0.936046
0.924333
0.908886
0.889298
0.865157
0.836077
0.801747
0.76197
0.716719
0.666177
0.610784
0.551276
0.488711
0.424499
0.360435
0.298713
0.241596
0.20486
0.140191
0.0880086
0.0552007
0.0355222
0.0209829
0.00981364
0.00320121
0.000551196
1.84471e-05
0.0653483
0.185943
0.3005
0.406997
0.504043
0.591256
0.668641
0.736561
0.795485
0.846148
0.889317
0.925748
0.956169
0.98126
1.00163
1.01783
1.03029
1.03939
1.04538
1.04842
1.04856
1.04575
1.03982
1.03051
1.01747
1.00029
0.978514
0.95169
0.919389
0.88127
0.837119
0.786913
0.730862
0.669463
0.603531
0.534226
0.463061
0.391918
0.32304
0.258495
0.213926
0.141909
0.0870504
0.0552903
0.0370896
0.021918
0.00990321
0.00319759
0.000541693
1.98294e-05
0.0712184
0.201596
0.325479
0.4408
0.546065
0.640661
0.724765
0.79865
0.862759
0.917854
0.964765
1.00432
1.0373
1.06447
1.08651
1.10399
1.11742
1.1272
1.13362
1.13683
1.13691
1.13377
1.12724
1.11703
1.10276
1.08397
1.06018
1.03087
0.995594
0.953972
0.905781
0.851001
0.789869
0.722933
0.651087
0.575589
0.49805
0.420403
0.344923
0.273902
0.226173
0.147588
0.0914252
0.059707
0.0405435
0.0206851
0.00821519
0.00294454
0.000485045
2.67517e-05
0.0765382
0.215643
0.347807
0.470951
0.583502
0.684718
0.774723
0.853846
0.922612
0.981675
1.03193
1.07427
1.10955
1.13858
1.1621
1.18073
1.19503
1.20541
1.2122
1.21557
1.21557
1.21215
1.20508
1.19406
1.17869
1.15846
1.13285
1.10131
1.06336
1.01859
0.966778
0.9079
0.842222
0.77034
0.693223
0.612235
0.529123
0.445974
0.365241
0.28973
0.240379
0.158663
0.100622
0.0671063
0.0449958
0.0216639
0.00992599
0.00339249
0.000646513
5.17783e-05
0.0811962
0.227842
0.367132
0.496994
0.615803
0.722746
0.817747
0.901379
0.974144
1.03663
1.08978
1.13453
1.1718
1.20243
1.22723
1.24685
1.2619
1.27281
1.27992
1.28342
1.28337
1.27968
1.27215
1.26044
1.2441
1.22262
1.19542
1.16195
1.12167
1.07418
1.01922
0.956796
0.887189
0.811042
0.729395
0.643709
0.555877
0.46818
0.383279
0.304171
0.252575
0.169771
0.10906
0.0731001
0.0484319
0.0227937
0.0104438
0.00315948
0.000781672
6.50795e-05
0.0851046
0.238011
0.383191
0.518595
0.642563
0.754232
0.853407
0.940686
1.01668
1.08203
1.13758
1.18433
1.22324
1.25521
1.28106
1.30152
1.31718
1.32853
1.33591
1.33952
1.33942
1.33553
1.32761
1.31532
1.29818
1.27565
1.24714
1.21204
1.16983
1.12006
1.06249
0.997113
0.924246
0.844574
0.759197
0.669662
0.577977
0.486586
0.398335
0.316306
0.261203
0.177108
0.113723
0.0759067
0.0500797
0.0238983
0.0111173
0.0036952
0.000843259
4.19661e-05
0.0881998
0.246022
0.395803
0.535526
0.663514
0.778868
0.881335
0.971376
1.04986
1.11744
1.17486
1.22318
1.26337
1.29639
1.32308
1.34419
1.36034
1.37203
1.37963
1.38333
1.3832
1.37914
1.37092
1.35817
1.3404
1.31704
1.28749
1.25112
1.20737
1.15581
1.09617
1.02848
0.953055
0.870627
0.782346
0.689826
0.595147
0.500835
0.409819
0.325154
0.267525
0.181506
0.116079
0.0770919
0.0509871
0.0252326
0.0115134
0.00396194
0.000695162
5.9744e-05
0.0904412
0.251799
0.404871
0.547671
0.678518
0.796493
0.901308
0.993312
1.0735
1.14263
1.2014
1.25083
1.29195
1.32571
1.353
1.37457
1.39108
1.40303
1.41078
1.41455
1.41441
1.41024
1.4018
1.38872
1.37049
1.34654
1.31623
1.27893
1.23407
1.1812
1.12008
1.05071
0.973448
0.889046
0.798697
0.704067
0.607293
0.510952
0.418024
0.331667
0.272743
0.185493
0.118571
0.0785848
0.0521729
0.0260717
0.0122135
0.00431679
0.000824616
5.32263e-05
0.0918244
0.255364
0.410465
0.555152
0.687743
0.807313
0.913557
1.00677
1.08792
1.15794
1.21753
1.26764
1.30931
1.34353
1.37118
1.39305
1.40977
1.42188
1.42974
1.43356
1.43341
1.42918
1.42062
1.40734
1.38883
1.36451
1.33373
1.29585
1.2503
1.19662
1.13456
1.06415
0.985751
0.900131
0.808515
0.712604
0.614577
0.517056
0.423073
0.335894
0.276371
0.189451
0.121725
0.0805883
0.0532764
0.0262401
0.0125858
0.004779
0.00139056
0.000138949
0.0923579
0.256743
0.412623
0.558019
0.691245
0.811382
0.918124
1.01174
1.09316
1.16343
1.2233
1.27364
1.3155
1.34987
1.37764
1.39961
1.41642
1.42859
1.4365
1.44035
1.44022
1.43598
1.42738
1.41404
1.39544
1.37099
1.34003
1.30193
1.2561
1.2021
1.13968
1.06886
0.990016
0.903927
0.81183
0.715445
0.616975
0.519071
0.42481
0.337538
0.27723
0.191863
0.123674
0.0819435
0.0539523
0.0267117
0.0127225
0.00503015
0.00157543
0.000249475
0.0920547
0.25596
0.41137
0.55629
0.689036
0.808696
0.914975
1.00816
1.08922
1.15915
1.21871
1.2688
1.31045
1.34467
1.37232
1.39419
1.41094
1.42308
1.43098
1.43485
1.43474
1.43055
1.42202
1.40876
1.39025
1.3659
1.33507
1.29711
1.25144
1.19762
1.13539
1.0648
0.986204
0.900395
0.808604
0.712545
0.614414
0.516851
0.422901
0.335775
0.27471
0.19099
0.122961
0.0813912
0.0536083
0.0264848
0.0125271
0.00487831
0.00141944
0.000156395
0.0909156
0.253009
0.406678
0.549913
0.681039
0.799161
0.904009
0.995924
1.07594
1.1449
1.20359
1.25296
1.29403
1.32776
1.35504
1.37663
1.39318
1.40519
1.41301
1.41687
1.41681
1.41271
1.40434
1.39129
1.37305
1.34904
1.31862
1.28115
1.23607
1.18291
1.12146
1.05172
0.974086
0.889314
0.798629
0.703719
0.606749
0.510319
0.417432
0.33131
0.26968
0.187397
0.120033
0.0793345
0.0523085
0.0258426
0.0120341
0.00447525
0.00114812
6.14762e-05
0.0889335
0.247868
0.398517
0.538846
0.667205
0.782728
0.88519
0.975051
1.05326
1.12062
1.1779
1.22608
1.26618
1.29914
1.3258
1.34691
1.36311
1.37488
1.38257
1.38639
1.38638
1.38242
1.37428
1.36157
1.34378
1.32034
1.29061
1.25399
1.20989
1.1579
1.09778
1.02955
0.95357
0.870603
0.781838
0.688922
0.593964
0.499485
0.408384
0.323702
0.263462
0.182827
0.116891
0.077229
0.0508192
0.0248411
0.0115084
0.0040795
0.000981221
6.18119e-05
0.086087
0.240479
0.386794
0.522972
0.647396
0.759243
0.858356
0.945368
1.02101
1.08609
1.14141
1.18796
1.22671
1.25856
1.28436
1.3048
1.32051
1.33194
1.33943
1.34318
1.34322
1.33945
1.33162
1.31936
1.30219
1.27953
1.25079
1.21535
1.17268
1.12235
1.06413
0.998045
0.924454
0.844083
0.758081
0.668046
0.576021
0.484465
0.396233
0.314499
0.255266
0.178801
0.114518
0.0758672
0.0496712
0.0236217
0.0110371
0.00379746
0.00084692
4.98902e-05
0.082424
0.23093
0.371629
0.502434
0.621778
0.728903
0.823778
0.907061
0.979437
1.04158
1.09441
1.13887
1.1759
1.20637
1.23106
1.25065
1.26571
1.2767
1.28393
1.28757
1.28767
1.28412
1.27668
1.265
1.2486
1.22695
1.19946
1.16555
1.1247
1.07651
1.02076
0.957467
0.886971
0.809968
0.727556
0.641261
0.553035
0.465232
0.380577
0.30181
0.246069
0.173161
0.111379
0.0742552
0.0485004
0.0224
0.0103878
0.00322345
0.00060007
5.468e-05
0.0779988
0.219332
0.353175
0.477425
0.590586
0.691982
0.781807
0.860526
0.928867
0.987502
1.03734
1.07931
1.11428
1.14307
1.16642
1.18498
1.19928
1.20972
1.21662
1.22013
1.22029
1.21699
1.21001
1.19901
1.18354
1.1631
1.13712
1.10507
1.06644
1.02086
0.968105
0.908212
0.841493
0.768605
0.690589
0.608882
0.525328
0.442165
0.362055
0.288105
0.230968
0.163879
0.1052
0.0699945
0.0459983
0.021228
0.00980585
0.00351686
0.000532637
4.65015e-05
0.07289
0.205845
0.331662
0.448242
0.554184
0.648951
0.732837
0.806304
0.86993
0.924512
0.970913
1.01
1.04259
1.06946
1.09127
1.10864
1.12203
1.13185
1.13835
1.1417
1.14191
1.13889
1.13244
1.12222
1.10782
1.08878
1.06456
1.03466
0.998614
0.956065
0.906816
0.850889
0.78858
0.720504
0.64763
0.571299
0.493212
0.415382
0.340103
0.269731
0.217369
0.151505
0.0952499
0.0627677
0.0421084
0.0202423
0.00820401
0.00308199
0.000496419
2.05731e-05
0.0671988
0.190682
0.307401
0.415292
0.513071
0.600453
0.677601
0.745091
0.80347
0.853536
0.896108
0.93199
0.961941
0.986656
1.00676
1.02278
1.03517
1.04427
1.05032
1.05347
1.05374
1.05103
1.04514
1.03579
1.0226
1.00511
0.982868
0.955386
0.922243
0.883111
0.837806
0.786351
0.729017
0.666372
0.599312
0.529089
0.457304
0.38586
0.316901
0.252941
0.203139
0.141586
0.0871636
0.0558176
0.0376169
0.021953
0.00921878
0.00304535
0.000543186
1.70387e-05
0.0610481
0.17411
0.280796
0.379117
0.467953
0.547187
0.617037
0.677971
0.730651
0.775827
0.814259
0.84668
0.873773
0.896162
0.9144
0.928964
0.940249
0.948564
0.954124
0.957049
0.957358
0.954968
0.9497
0.941288
0.92939
0.913605
0.893503
0.868658
0.838683
0.803282
0.762289
0.715722
0.663828
0.607121
0.546418
0.482863
0.417948
0.353498
0.291584
0.23421
0.195814
0.137888
0.0849615
0.05346
0.0350534
0.0209459
0.00967743
0.00308942
0.000498922
1.83988e-05
0.054579
0.156455
0.252351
0.340397
0.419729
0.490218
0.552254
0.606273
0.652946
0.692977
0.727056
0.755837
0.779924
0.799861
0.81613
0.829148
0.839259
0.846731
0.851752
0.854427
0.85477
0.852707
0.848081
0.840654
0.830122
0.816131
0.7983
0.776249
0.749636
0.718196
0.681782
0.64041
0.594297
0.543901
0.489953
0.433481
0.375857
0.318866
0.264755
0.216096
0.177629
0.134977
0.0862077
0.0541358
0.0342559
0.0199306
0.00934988
0.00299826
0.000510939
1.86044e-05
0.0479444
0.138091
0.222662
0.299953
0.369355
0.430826
0.484741
0.531638
0.572147
0.606909
0.636533
0.661588
0.682591
0.700007
0.714246
0.725664
0.734553
0.741143
0.745595
0.747996
0.748361
0.746623
0.742646
0.736224
0.727094
0.714948
0.699454
0.680284
0.657139
0.629789
0.598104
0.562097
0.521955
0.478073
0.431084
0.381869
0.331585
0.281727
0.234294
0.191592
0.151011
0.109034
0.0724141
0.0449805
0.0272551
0.0144571
0.00594861
0.00188403
0.000240429
7.96629e-06
0.0413028
0.119442
0.192427
0.258791
0.318056
0.370397
0.416177
0.455956
0.490319
0.519832
0.545018
0.566356
0.584276
0.599165
0.611363
0.621164
0.628813
0.634503
0.638366
0.640477
0.640847
0.639421
0.636083
0.630659
0.622925
0.612622
0.599468
0.583184
0.563517
0.540269
0.513332
0.482712
0.448565
0.411225
0.371221
0.329291
0.286364
0.243509
0.202047
0.163789
0.128496
0.0936855
0.0635597
0.0406846
0.0238337
0.0122257
0.00517423
0.00148162
0.000215502
7.30313e-06
0.0348082
0.100952
0.162375
0.217901
0.267214
0.310569
0.348415
0.381282
0.40969
0.43412
0.455005
0.472733
0.487652
0.500072
0.510268
0.518477
0.5249
0.529691
0.532962
0.534772
0.535132
0.533995
0.531266
0.526803
0.520422
0.511907
0.501026
0.487549
0.471268
0.452017
0.429706
0.404338
0.376038
0.345074
0.311876
0.277048
0.241349
0.205601
0.170593
0.137537
0.107022
0.0787222
0.0541566
0.0347461
0.0202902
0.0103156
0.00428609
0.00124357
0.00018235
6.1721e-06
0.0286075
0.0830897
0.13332
0.178371
0.218161
0.252997
0.283354
0.309716
0.332527
0.352178
0.369012
0.383332
0.395407
0.405479
0.413764
0.420448
0.425689
0.42961
0.4323
0.433808
0.434141
0.433263
0.431098
0.427533
0.42242
0.415587
0.406849
0.39602
0.382934
0.367458
0.349517
0.329113
0.306344
0.281415
0.254658
0.226536
0.19765
0.168673
0.140182
0.112934
0.0876639
0.064738
0.0448925
0.0288996
0.0168787
0.00857355
0.00353955
0.00102746
0.00015092
5.10987e-06
0.0228334
0.0663015
0.106018
0.141311
0.172282
0.199301
0.222822
0.243263
0.260981
0.276278
0.289412
0.300608
0.310068
0.317973
0.324487
0.329752
0.333888
0.336992
0.339131
0.340343
0.340636
0.339981
0.338321
0.335567
0.331606
0.326305
0.31952
0.311108
0.300939
0.288911
0.274966
0.259102
0.241393
0.221997
0.20116
0.179221
0.156621
0.133887
0.111499
0.0899752
0.0699099
0.0517923
0.0361169
0.0233513
0.0136716
0.00695752
0.00287054
0.000833304
0.000122431
4.14494e-06
0.0176008
0.0509908
0.0811529
0.107678
0.130796
0.150909
0.168418
0.183659
0.196901
0.208361
0.218223
0.226648
0.233779
0.239748
0.244674
0.248661
0.251799
0.254159
0.255793
0.256729
0.256973
0.256504
0.255279
0.253234
0.250283
0.246329
0.241263
0.23498
0.227383
0.218395
0.207973
0.196116
0.182876
0.168369
0.152774
0.136337
0.119363
0.102235
0.0853344
0.0690453
0.053798
0.0400068
0.0280439
0.0182265
0.0107171
0.00547424
0.00226359
0.00065797
9.67133e-05
3.27371e-06
0.0130058
0.037505
0.0593135
0.0782731
0.0946929
0.108957
0.121391
0.132241
0.141693
0.149895
0.156968
0.163022
0.168153
0.172455
0.176008
0.178889
0.181159
0.18287
0.184059
0.184746
0.184936
0.184616
0.183753
0.182303
0.180205
0.177389
0.17378
0.169302
0.163885
0.157477
0.150045
0.141588
0.132144
0.121791
0.110656
0.0989117
0.086766
0.0744778
0.0623254
0.050589
0.0395671
0.0295604
0.0208402
0.0136303
0.00806371
0.00414213
0.00172026
0.000501425
7.37797e-05
2.49711e-06
0.00911832
0.026096
0.0409334
0.0536734
0.0646539
0.074196
0.0825358
0.0898368
0.0962162
0.101765
0.106559
0.110667
0.114154
0.11708
0.119499
0.121461
0.12301
0.124179
0.124995
0.12547
0.125608
0.1254
0.124826
0.123855
0.122446
0.120553
0.118124
0.115109
0.111461
0.107146
0.102141
0.0964461
0.0900848
0.0831097
0.0756047
0.0676841
0.0594864
0.0511781
0.0429451
0.0349788
0.0274768
0.0206383
0.0146463
0.00965273
0.00575731
0.00298119
0.00124662
0.000365067
5.38198e-05
1.82158e-06
0.00597558
0.0169032
0.0262392
0.0341597
0.0409714
0.0469065
0.0521141
0.056689
0.0606971
0.0641899
0.0672118
0.069804
0.0720058
0.073854
0.0753833
0.0766249
0.0776055
0.0783472
0.0788656
0.0791699
0.0792621
0.0791366
0.0787808
0.0781754
0.0772953
0.076111
0.0745908
0.0727031
0.0704192
0.0677165
0.0645819
0.0610151
0.0570309
0.0526618
0.0479593
0.0429944
0.0378534
0.032638
0.0274625
0.0224469
0.0177131
0.0133827
0.0095679
0.00636332
0.00383536
0.00200826
0.000848538
0.000250393
3.70404e-05
1.254e-06
0.00357829
0.00994393
0.0152385
0.019689
0.023523
0.02688
0.0298386
0.0324459
0.0347348
0.0367317
0.0384608
0.0399448
0.0412056
0.0422644
0.0431407
0.0438525
0.0444152
0.0448412
0.0451396
0.0453159
0.045371
0.0453019
0.0451014
0.0447586
0.0442591
0.0435864
0.0427223
0.0416488
0.0403498
0.0388124
0.0370293
0.0350003
0.032734
0.0302487
0.0275734
0.024748
0.0218218
0.018852
0.0159025
0.0130412
0.0103366
0.00785592
0.00566099
0.00380389
0.00232252
0.00123465
0.000529888
0.000158369
2.35742e-05
7.98692e-07
0.0018863
0.00510247
0.00770175
0.00988027
0.0117686
0.013432
0.0149035
0.0162031
0.0173451
0.0183419
0.0192052
0.0199462
0.0205758
0.0211045
0.0215422
0.0218979
0.0221791
0.0223923
0.0225419
0.0226307
0.0226592
0.0226258
0.022527
0.0223573
0.0221097
0.0217758
0.0213467
0.0208134
0.0201679
0.0194038
0.0185176
0.0175091
0.0163827
0.0151475
0.0138179
0.0124135
0.010959
0.0094825
0.00801574
0.00659216
0.00524551
0.00400846
0.0029107
0.00197695
0.00122503
0.000664025
0.000291646
8.90979e-05
1.34281e-05
4.55808e-07
0.000817414
0.00212407
0.00315585
0.00402639
0.00478762
0.00546142
0.00605875
0.00658661
0.00705054
0.00745545
0.00780605
0.00810693
0.00836255
0.00857721
0.00875492
0.00889934
0.0090136
0.00910027
0.0091612
0.00919748
0.00920933
0.00919611
0.0091564
0.00908797
0.00898792
0.00885289
0.00867923
0.00846332
0.00820189
0.00789241
0.0075334
0.00712484
0.00666849
0.00616811
0.0056295
0.00506063
0.00447143
0.00387341
0.00327932
0.00270269
0.00215713
0.00165568
0.00121011
0.000829992
0.00052203
0.000289387
0.000131208
4.16205e-05
6.44493e-06
2.20025e-07
0.000252127
0.000621031
0.00091125
0.0011595
0.00137796
0.00157164
0.00174335
0.00189503
0.00202829
0.00214455
0.00224518
0.00233152
0.00240485
0.00246642
0.0025174
0.00255883
0.00259162
0.0026165
0.00263402
0.00264448
0.00264795
0.00264423
0.00263292
0.00261336
0.00258473
0.00254606
0.00249628
0.00243436
0.00235935
0.00227053
0.00216749
0.0020502
0.00191919
0.00177553
0.00162091
0.00145761
0.0012885
0.00111687
0.000946415
0.000780996
0.00062452
0.00048071
0.000352895
0.000243765
0.000155145
8.77983e-05
4.12767e-05
1.38743e-05
2.28555e-06
7.95114e-08
3.9057e-05
9.16188e-05
0.000133791
0.000170133
0.000202123
0.000230463
0.000255571
0.000277738
0.000297203
0.000314177
0.000328865
0.000341462
0.000352159
0.000361139
0.000368572
0.000374614
0.000379396
0.000383029
0.000385588
0.00038712
0.000387633
0.000387099
0.000385457
0.000382611
0.000378438
0.000372794
0.000365523
0.000356473
0.000345505
0.000332512
0.000317432
0.000300265
0.000281084
0.00026005
0.000237412
0.000213504
0.000188746
0.000163627
0.000138685
0.000114487
9.16069e-05
7.05873e-05
5.19128e-05
3.59718e-05
2.30256e-05
1.31792e-05
6.3533e-06
2.26454e-06
4.20531e-07
1.58471e-08
1.32281e-06
3.11684e-06
4.54756e-06
5.77776e-06
6.85982e-06
7.81804e-06
8.66666e-06
9.41567e-06
1.00732e-05
1.06464e-05
1.11422e-05
1.15674e-05
1.19283e-05
1.22312e-05
1.2482e-05
1.26858e-05
1.28471e-05
1.29697e-05
1.30562e-05
1.3108e-05
1.31255e-05
1.31077e-05
1.30525e-05
1.29565e-05
1.28157e-05
1.2625e-05
1.23792e-05
1.2073e-05
1.17018e-05
1.12618e-05
1.0751e-05
1.01693e-05
9.51927e-06
8.80631e-06
8.03891e-06
7.22852e-06
6.38939e-06
5.53813e-06
4.69305e-06
3.87345e-06
3.09876e-06
2.38741e-06
1.75578e-06
1.21691e-06
7.79462e-07
4.4691e-07
2.16569e-07
7.85335e-08
1.56872e-08
1.0058e-09
1.01278e-06
2.15388e-08
7.68588e-09
8.14144e-10
4.98523e-11
2.7169e-12
1.16009e-13
1.07696e-14
1e-15
1e-15
1e-15
1e-15
1e-15
1e-15
6.76633e-14
4.8672e-12
5.54842e-11
1.19589e-09
2.41401e-08
5.33165e-07
1.69194e-05
2.66238e-06
2.32472e-07
2.29813e-08
1.90572e-09
1.62409e-10
3.70658e-12
2.65252e-13
1e-15
1e-15
8.95301e-15
1e-15
1.6926e-13
1e-15
1e-15
2.35211e-10
5.43342e-09
1.18559e-07
2.38572e-06
4.67991e-05
8.90596e-06
1.88274e-07
5.29547e-08
4.46116e-09
3.99281e-10
3.72634e-11
1.69724e-12
3.65721e-14
1e-15
1e-15
2.08122e-15
1e-15
4.51931e-14
1e-15
1.07052e-12
7.08299e-11
1.03041e-09
2.52128e-08
5.29397e-07
1.1511e-05
1.02205e-09
1.59364e-08
7.96648e-08
2.18944e-07
4.49053e-07
7.76677e-07
1.20041e-06
1.7118e-06
2.29671e-06
2.93689e-06
3.61164e-06
4.29951e-06
4.97986e-06
5.63417e-06
6.24693e-06
6.80627e-06
7.30413e-06
7.73616e-06
8.10144e-06
8.40191e-06
8.64183e-06
8.82709e-06
8.96469e-06
9.06208e-06
9.12681e-06
9.16606e-06
9.18642e-06
9.19366e-06
9.19266e-06
9.18744e-06
9.18116e-06
9.17644e-06
9.17526e-06
9.17938e-06
9.19014e-06
9.20886e-06
9.2369e-06
9.27561e-06
9.32648e-06
9.39112e-06
9.47119e-06
9.56841e-06
9.68433e-06
9.82016e-06
9.97654e-06
1.01533e-05
1.03491e-05
1.05614e-05
1.07866e-05
1.102e-05
1.12562e-05
1.14898e-05
1.17159e-05
1.19297e-05
1.21278e-05
1.23073e-05
1.24667e-05
1.2605e-05
1.27225e-05
1.28203e-05
1.28997e-05
1.29627e-05
1.30116e-05
1.30486e-05
1.30757e-05
1.3095e-05
1.31082e-05
1.31169e-05
1.31223e-05
1.31254e-05
1.3127e-05
1.31276e-05
1.31276e-05
1.31273e-05
1.31266e-05
1.31258e-05
1.31248e-05
1.31236e-05
1.31219e-05
1.31195e-05
1.31162e-05
1.31116e-05
1.31053e-05
1.30966e-05
1.3085e-05
1.30695e-05
1.30492e-05
1.30232e-05
1.29901e-05
1.29489e-05
1.28982e-05
1.28369e-05
1.27641e-05
1.26793e-05
1.25826e-05
1.24754e-05
1.23609e-05
1.22452e-05
1.21399e-05
1.2066e-05
1.61084e-08
4.27349e-07
2.29804e-06
6.42779e-06
1.32652e-05
2.30056e-05
3.56062e-05
5.08135e-05
6.82057e-05
8.72384e-05
0.000107295
0.000127737
0.000147951
0.000167387
0.000185584
0.000202189
0.000216964
0.000229782
0.000240614
0.000249521
0.000256628
0.000262112
0.000266181
0.000269057
0.000270964
0.000272116
0.000272709
0.000272913
0.000272875
0.000272713
0.00027252
0.000272375
0.000272337
0.000272458
0.000272775
0.000273331
0.000274165
0.000275316
0.000276831
0.000278755
0.000281139
0.000284034
0.000287487
0.000291533
0.000296192
0.000301458
0.000307293
0.000313622
0.000320334
0.000327288
0.000334328
0.000341292
0.000348027
0.0003544
0.000360302
0.000365651
0.000370399
0.000374521
0.000378024
0.000380936
0.000383303
0.000385183
0.00038664
0.000387742
0.000388551
0.000389128
0.000389524
0.000389784
0.000389946
0.00039004
0.000390087
0.000390105
0.000390107
0.000390096
0.000390078
0.000390054
0.000390025
0.000389987
0.000389936
0.000389866
0.000389769
0.000389632
0.000389443
0.000389186
0.000388838
0.000388377
0.000387775
0.000386999
0.000386016
0.000384788
0.00038328
0.000381456
0.00037929
0.000376766
0.000373889
0.000370699
0.000367289
0.000363844
0.000360705
0.000358491
8.09615e-08
2.3266e-06
1.41058e-05
4.18517e-05
8.86127e-05
0.000155537
0.000242235
0.00034691
0.00046661
0.000597545
0.000735442
0.000875891
0.00101466
0.00114797
0.00127266
0.00138632
0.00148734
0.00157485
0.00164869
0.00170929
0.00175753
0.00179465
0.00182208
0.00184136
0.00185403
0.00186157
0.00186532
0.00186645
0.00186597
0.00186467
0.0018632
0.00186208
0.00186174
0.0018625
0.00186464
0.00186843
0.00187416
0.00188209
0.00189253
0.00190582
0.0019223
0.00194232
0.00196621
0.00199423
0.00202651
0.00206301
0.00210349
0.0021474
0.00219399
0.00224227
0.00229114
0.00233947
0.0023862
0.0024304
0.00247133
0.00250842
0.00254134
0.00256991
0.00259419
0.00261438
0.00263079
0.00264383
0.00265395
0.0026616
0.00266722
0.00267124
0.00267401
0.00267583
0.00267698
0.00267764
0.00267799
0.00267812
0.00267815
0.00267808
0.00267796
0.0026778
0.0026776
0.00267734
0.00267699
0.00267651
0.00267584
0.0026749
0.0026736
0.00267182
0.00266943
0.00266625
0.0026621
0.00265675
0.00264997
0.00264151
0.00263111
0.00261854
0.0026036
0.0025862
0.00256634
0.00254431
0.00252072
0.00249684
0.00247495
0.00245914
2.24856e-07
6.58693e-06
4.24943e-05
0.000133626
0.000293426
0.000525873
0.000828865
0.0011955
0.00161499
0.00207372
0.00255646
0.00304761
0.00353225
0.0039971
0.00443116
0.00482607
0.00517627
0.0054789
0.00573351
0.00594174
0.0061068
0.00623309
0.00632571
0.00639011
0.00643171
0.00645569
0.00646675
0.00646899
0.00646587
0.00646014
0.00645408
0.00644948
0.0064477
0.00644992
0.00645712
0.00647022
0.00649018
0.00651797
0.00655467
0.00660144
0.00665954
0.00673023
0.00681469
0.00691386
0.00702827
0.00715782
0.00730161
0.00745779
0.00762357
0.00779541
0.00796932
0.00814126
0.00830744
0.00846454
0.00860995
0.00874161
0.00885845
0.00895982