/*--------------------------------*- C++ -*----------------------------------*\
| =========                 |                                                 |
| \\      /  F ield         | foam-extend: Open Source CFD                    |
|  \\    /   O peration     | Version:     4.0                                |
|   \\  /    A nd           | Web:         http://www.foam-extend.org         |
|    \\/     M anipulation  |                                                 |
\*---------------------------------------------------------------------------*/
FoamFile
{
    version     2.0;
    format      ascii;
    class       volScalarField;
    location    "0.0007";
    object      nut;
}
// * * * * * * * * * * * * * * * * * * * * * * * * * * * * * * * * * * * * * //

dimensions      [0 2 -1 0 0 0 0];

internalField   nonuniform List<scalar> 
28770
(
5.51485e-14
1.35348e-13
2.03447e-13
2.65412e-13
3.2158e-13
3.72869e-13
4.19338e-13
4.61129e-13
4.98386e-13
5.31289e-13
5.60052e-13
5.84922e-13
6.06167e-13
6.24072e-13
6.38922e-13
6.50994e-13
6.60546e-13
6.67802e-13
6.72948e-13
6.76122e-13
6.77408e-13
6.76833e-13
6.74365e-13
6.69914e-13
6.63342e-13
6.54466e-13
6.43072e-13
6.28925e-13
6.11794e-13
5.91469e-13
5.67789e-13
5.4066e-13
5.10085e-13
4.76183e-13
4.39208e-13
3.9956e-13
3.57792e-13
3.14605e-13
2.70835e-13
2.27433e-13
1.85424e-13
1.4586e-13
1.09762e-13
7.80486e-14
5.1462e-14
3.05018e-14
1.53585e-14
5.84006e-15
1.25169e-15
9.02666e-17
1.15974e-11
2.37932e-11
3.51863e-11
4.57979e-11
5.54623e-11
6.42884e-11
7.2287e-11
7.94809e-11
8.58945e-11
9.15587e-11
9.65103e-11
1.00791e-10
1.04449e-10
1.07531e-10
1.10087e-10
1.12165e-10
1.13809e-10
1.15058e-10
1.15943e-10
1.16489e-10
1.16709e-10
1.16609e-10
1.16182e-10
1.15413e-10
1.14278e-10
1.12746e-10
1.10779e-10
1.08338e-10
1.05382e-10
1.01875e-10
9.77893e-11
9.31091e-11
8.7835e-11
8.19875e-11
7.56107e-11
6.87737e-11
6.15721e-11
5.41268e-11
4.65824e-11
3.91025e-11
3.18639e-11
2.50484e-11
1.88317e-11
1.33718e-11
8.79639e-12
5.19018e-12
2.58214e-12
9.31138e-13
1.39755e-13
1.40263e-15
3.05637e-10
5.14768e-10
7.24021e-10
9.2997e-10
1.12201e-09
1.29856e-09
1.45897e-09
1.60336e-09
1.73214e-09
1.84589e-09
1.94533e-09
2.0313e-09
2.10474e-09
2.16662e-09
2.21795e-09
2.25967e-09
2.29267e-09
2.31772e-09
2.33547e-09
2.34637e-09
2.35072e-09
2.34861e-09
2.3399e-09
2.32428e-09
2.30127e-09
2.27023e-09
2.23039e-09
2.18096e-09
2.12111e-09
2.05013e-09
1.96745e-09
1.87276e-09
1.76608e-09
1.64784e-09
1.51894e-09
1.38078e-09
1.2353e-09
1.08496e-09
9.32681e-10
7.81775e-10
6.35814e-10
4.98456e-10
3.73229e-10
2.63272e-10
1.71049e-10
9.80849e-11
4.4956e-11
1.24464e-11
9.95791e-13
6.55907e-15
3.01127e-09
4.22743e-09
5.55556e-09
6.94844e-09
8.299e-09
9.56401e-09
1.07236e-08
1.17717e-08
1.27082e-08
1.35361e-08
1.42601e-08
1.48862e-08
1.5421e-08
1.58716e-08
1.62453e-08
1.6549e-08
1.67891e-08
1.69713e-08
1.71001e-08
1.71788e-08
1.72097e-08
1.71931e-08
1.71281e-08
1.70124e-08
1.68422e-08
1.66129e-08
1.63188e-08
1.59539e-08
1.55123e-08
1.49886e-08
1.43788e-08
1.36806e-08
1.28942e-08
1.20228e-08
1.10732e-08
1.00558e-08
8.98485e-09
7.87857e-09
6.75844e-09
5.64872e-09
4.57549e-09
3.56528e-09
2.64335e-09
1.83185e-09
1.1485e-09
6.08561e-10
2.33635e-10
4.70061e-11
2.80735e-12
1.71948e-14
1.68407e-08
2.07647e-08
2.55664e-08
3.0915e-08
3.63261e-08
4.1532e-08
4.63808e-08
5.08028e-08
5.47735e-08
5.8293e-08
6.13755e-08
6.40429e-08
6.63225e-08
6.82437e-08
6.98367e-08
7.1131e-08
7.21537e-08
7.29287e-08
7.34753e-08
7.38078e-08
7.39344e-08
7.3857e-08
7.3571e-08
7.30659e-08
7.23255e-08
7.13289e-08
7.00517e-08
6.84676e-08
6.6551e-08
6.42786e-08
6.16329e-08
5.86041e-08
5.51934e-08
5.1415e-08
4.72981e-08
4.28881e-08
3.82469e-08
3.34525e-08
2.85968e-08
2.37834e-08
1.91227e-08
1.47268e-08
1.07044e-08
7.15882e-09
4.20028e-09
1.97308e-09
6.29141e-10
1.04541e-10
5.66833e-12
3.40528e-14
6.51289e-08
7.40681e-08
8.64623e-08
1.01048e-07
1.16397e-07
1.31594e-07
1.46036e-07
1.59382e-07
1.71468e-07
1.82236e-07
1.91697e-07
1.999e-07
2.06919e-07
2.12838e-07
2.17748e-07
2.21736e-07
2.24886e-07
2.27269e-07
2.28946e-07
2.29958e-07
2.30329e-07
2.30064e-07
2.29147e-07
2.27543e-07
2.252e-07
2.22052e-07
2.1802e-07
2.13021e-07
2.06973e-07
1.99804e-07
1.91456e-07
1.819e-07
1.7114e-07
1.59218e-07
1.46227e-07
1.32307e-07
1.17651e-07
1.02499e-07
8.71354e-08
7.18781e-08
5.7073e-08
4.30864e-08
3.03128e-08
1.92103e-08
1.03489e-08
4.31432e-09
1.20998e-09
1.83831e-10
9.62456e-12
5.73576e-14
1.9512e-07
2.11901e-07
2.37471e-07
2.69195e-07
3.03761e-07
3.38925e-07
3.73051e-07
4.05082e-07
4.34409e-07
4.60739e-07
4.83993e-07
5.04227e-07
5.21578e-07
5.36231e-07
5.48394e-07
5.58278e-07
5.66081e-07
5.71976e-07
5.76108e-07
5.78577e-07
5.79438e-07
5.78697e-07
5.7631e-07
5.72182e-07
5.66179e-07
5.58123e-07
5.47815e-07
5.35038e-07
5.19581e-07
5.01255e-07
4.79912e-07
4.55473e-07
4.27942e-07
3.97425e-07
3.64148e-07
3.28461e-07
2.90842e-07
2.51891e-07
2.12323e-07
1.72966e-07
1.34774e-07
9.88616e-08
6.65931e-08
3.96244e-08
1.96523e-08
7.48659e-09
1.95015e-09
2.8421e-10
1.46474e-11
8.69242e-14
4.86232e-07
5.14699e-07
5.599e-07
6.18753e-07
6.84823e-07
7.53659e-07
8.21797e-07
8.86776e-07
9.47008e-07
1.00159e-06
1.05013e-06
1.09257e-06
1.12909e-06
1.16e-06
1.1857e-06
1.2066e-06
1.2231e-06
1.23554e-06
1.24422e-06
1.24934e-06
1.251e-06
1.24921e-06
1.24384e-06
1.23468e-06
1.22143e-06
1.20368e-06
1.18098e-06
1.15286e-06
1.11882e-06
1.07846e-06
1.03142e-06
9.7751e-07
9.1673e-07
8.4929e-07
7.75661e-07
6.96588e-07
6.13105e-07
5.26544e-07
4.38554e-07
3.51167e-07
2.66917e-07
1.89006e-07
1.21335e-07
6.79625e-08
3.15451e-08
1.13252e-08
2.83198e-09
4.04087e-10
2.06418e-11
1.2214e-13
1.05401e-06
1.09976e-06
1.17259e-06
1.26988e-06
1.38164e-06
1.50042e-06
1.62006e-06
1.73589e-06
1.84459e-06
1.94409e-06
2.03326e-06
2.11171e-06
2.17952e-06
2.23711e-06
2.2851e-06
2.32416e-06
2.35499e-06
2.37821e-06
2.39431e-06
2.40364e-06
2.40636e-06
2.40244e-06
2.39161e-06
2.37342e-06
2.34724e-06
2.31225e-06
2.26755e-06
2.21215e-06
2.14507e-06
2.06545e-06
1.97257e-06
1.86602e-06
1.74572e-06
1.61204e-06
1.46588e-06
1.3087e-06
1.14262e-06
9.70483e-07
7.96006e-07
6.24048e-07
4.60898e-07
3.14328e-07
1.92724e-07
1.02631e-07
4.54082e-08
1.57047e-08
3.83649e-09
5.40857e-10
2.74612e-11
1.62003e-13
2.04686e-06
2.1213e-06
2.23188e-06
2.37893e-06
2.55076e-06
2.73634e-06
2.92607e-06
3.1122e-06
3.28894e-06
3.45234e-06
3.59999e-06
3.73075e-06
3.84437e-06
3.94127e-06
4.02222e-06
4.08822e-06
4.14031e-06
4.17944e-06
4.20637e-06
4.2216e-06
4.22535e-06
4.21743e-06
4.19733e-06
4.16417e-06
4.11671e-06
4.05347e-06
3.9727e-06
3.87259e-06
3.75128e-06
3.60712e-06
3.43875e-06
3.24528e-06
3.02651e-06
2.78308e-06
2.51664e-06
2.23004e-06
1.92759e-06
1.61533e-06
1.30145e-06
9.96722e-07
7.14617e-07
4.70249e-07
2.77127e-07
1.4194e-07
6.07464e-08
2.05144e-08
4.94023e-09
6.91237e-10
3.49345e-11
2.05471e-13
3.62898e-06
3.75744e-06
3.92188e-06
4.12832e-06
4.37283e-06
4.64026e-06
4.91695e-06
5.19149e-06
5.4549e-06
5.7007e-06
5.92461e-06
6.12425e-06
6.2987e-06
6.44812e-06
6.57335e-06
6.67563e-06
6.75633e-06
6.81674e-06
6.85788e-06
6.88039e-06
6.88439e-06
6.86946e-06
6.83457e-06
6.7781e-06
6.69789e-06
6.59126e-06
6.45519e-06
6.28645e-06
6.08181e-06
5.83828e-06
5.55342e-06
5.22561e-06
4.85446e-06
4.44115e-06
3.98885e-06
3.50325e-06
2.9931e-06
2.47084e-06
1.95319e-06
1.46117e-06
1.01886e-06
6.49834e-07
3.70838e-07
1.84503e-07
7.71703e-08
2.56548e-08
6.12019e-09
8.52169e-10
4.29098e-11
2.51798e-13
5.94606e-06
6.18037e-06
6.42028e-06
6.70242e-06
7.03079e-06
7.39152e-06
7.76771e-06
8.14426e-06
8.50872e-06
8.85157e-06
9.16624e-06
9.44863e-06
9.69676e-06
9.91022e-06
1.00897e-05
1.02365e-05
1.03523e-05
1.04385e-05
1.04964e-05
1.05265e-05
1.05288e-05
1.05022e-05
1.0445e-05
1.03542e-05
1.02263e-05
1.00567e-05
9.84052e-06
9.57231e-06
9.24669e-06
8.8587e-06
8.40424e-06
7.88071e-06
7.28763e-06
6.6275e-06
5.90663e-06
5.13624e-06
4.33347e-06
3.52216e-06
2.73283e-06
2.00084e-06
1.36218e-06
8.46773e-07
4.70931e-07
2.29232e-07
9.43872e-08
3.10772e-08
7.37103e-09
1.02365e-09
5.13729e-11
3.00986e-13
9.0812e-06
9.51729e-06
9.87221e-06
1.02559e-05
1.06769e-05
1.11378e-05
1.16199e-05
1.21052e-05
1.25779e-05
1.30256e-05
1.34392e-05
1.38124e-05
1.41421e-05
1.44269e-05
1.46671e-05
1.48638e-05
1.50186e-05
1.51331e-05
1.52083e-05
1.52447e-05
1.52415e-05
1.51968e-05
1.51074e-05
1.49686e-05
1.47747e-05
1.45185e-05
1.41921e-05
1.3787e-05
1.32949e-05
1.27079e-05
1.20198e-05
1.12268e-05
1.0329e-05
9.33183e-06
8.24761e-06
7.09739e-06
5.91237e-06
4.73394e-06
3.61155e-06
2.59696e-06
1.7354e-06
1.05728e-06
5.75511e-07
2.75241e-07
1.12225e-07
3.6848e-08
8.72856e-09
1.213e-09
6.07261e-11
3.56334e-13
1.30134e-05
1.38027e-05
1.43351e-05
1.48622e-05
1.53915e-05
1.59558e-05
1.65442e-05
1.71372e-05
1.77171e-05
1.82689e-05
1.8781e-05
1.92455e-05
1.96576e-05
2.00149e-05
2.03168e-05
2.05641e-05
2.07582e-05
2.09002e-05
2.09909e-05
2.10299e-05
2.10154e-05
2.09441e-05
2.08107e-05
2.0608e-05
2.03271e-05
1.99574e-05
1.94869e-05
1.89031e-05
1.81934e-05
1.73464e-05
1.63534e-05
1.52099e-05
1.39178e-05
1.24881e-05
1.09432e-05
9.31987e-06
7.66979e-06
6.05807e-06
4.5568e-06
3.2333e-06
2.13517e-06
1.2809e-06
6.83671e-07
3.22077e-07
1.3094e-07
4.33418e-08
1.03227e-08
1.43712e-09
7.12607e-11
4.12591e-13
1.76036e-05
1.89482e-05
1.97458e-05
2.04634e-05
2.11442e-05
2.18171e-05
2.25088e-05
2.32026e-05
2.3881e-05
2.45278e-05
2.513e-05
2.5678e-05
2.61658e-05
2.65897e-05
2.69485e-05
2.72422e-05
2.74714e-05
2.76366e-05
2.77378e-05
2.77733e-05
2.77398e-05
2.76318e-05
2.74412e-05
2.71576e-05
2.67678e-05
2.62565e-05
2.56069e-05
2.4801e-05
2.38213e-05
2.26524e-05
2.1283e-05
1.97086e-05
1.79353e-05
1.59831e-05
1.38898e-05
1.17135e-05
9.53281e-06
7.44121e-06
5.53577e-06
3.89824e-06
2.56903e-06
1.51687e-06
7.92106e-07
3.69241e-07
1.52266e-07
5.20478e-08
1.26162e-08
1.77745e-09
8.52456e-11
4.67972e-13
2.26167e-05
2.47435e-05
2.59124e-05
2.68845e-05
2.77682e-05
2.85696e-05
2.93618e-05
3.01472e-05
3.09109e-05
3.16381e-05
3.23154e-05
3.29328e-05
3.34833e-05
3.39624e-05
3.43679e-05
3.46989e-05
3.49551e-05
3.51361e-05
3.52402e-05
3.52644e-05
3.5203e-05
3.50476e-05
3.47867e-05
3.44054e-05
3.38857e-05
3.32066e-05
3.23451e-05
3.12771e-05
2.99796e-05
2.84328e-05
2.66232e-05
2.45482e-05
2.22206e-05
1.96733e-05
1.69643e-05
1.41784e-05
1.14246e-05
8.82763e-06
6.51131e-06
4.58028e-06
3.51663e-06
1.96402e-06
1.01487e-06
4.8352e-07
2.1328e-07
8.04862e-08
2.26717e-08
3.81223e-09
2.7657e-10
1.69036e-12
2.77712e-05
3.08906e-05
3.2538e-05
3.38322e-05
3.49578e-05
3.59422e-05
3.68387e-05
3.7708e-05
3.85434e-05
3.93343e-05
4.00692e-05
4.07385e-05
4.13351e-05
4.18543e-05
4.2293e-05
4.26495e-05
4.29222e-05
4.31094e-05
4.32078e-05
4.32119e-05
4.31136e-05
4.29008e-05
4.25578e-05
4.20647e-05
4.13976e-05
4.05292e-05
3.94295e-05
3.80678e-05
3.64151e-05
3.44474e-05
3.21504e-05
2.9525e-05
2.65932e-05
2.34049e-05
2.00417e-05
1.66175e-05
1.32725e-05
1.01595e-05
7.42126e-06
5.15856e-06
3.8318e-06
2.11713e-06
1.04667e-06
4.95737e-07
2.2873e-07
9.04276e-08
2.56055e-08
4.28511e-09
2.73637e-10
1.48699e-12
3.27955e-05
3.70623e-05
3.9277e-05
4.09533e-05
4.23589e-05
4.35731e-05
4.45974e-05
4.55465e-05
4.64428e-05
4.72823e-05
4.80578e-05
4.87616e-05
4.93877e-05
4.99312e-05
5.0389e-05
5.07582e-05
5.10364e-05
5.122e-05
5.13039e-05
5.128e-05
5.11369e-05
5.08588e-05
5.04251e-05
4.98104e-05
4.89844e-05
4.79127e-05
4.65584e-05
4.48837e-05
4.28538e-05
4.04414e-05
3.76322e-05
3.44325e-05
3.08763e-05
2.70326e-05
2.30088e-05
1.89482e-05
1.50198e-05
1.13988e-05
8.24097e-06
5.64455e-06
4.08008e-06
2.18475e-06
1.055e-06
5.0658e-07
2.44196e-07
9.67771e-08
2.6504e-08
4.37612e-09
2.72359e-10
1.60106e-12
3.74675e-05
4.29561e-05
4.57915e-05
4.78892e-05
4.96024e-05
5.1058e-05
5.22619e-05
5.3294e-05
5.42447e-05
5.51214e-05
5.59238e-05
5.66476e-05
5.72885e-05
5.78427e-05
5.83068e-05
5.86776e-05
5.89513e-05
5.9123e-05
5.91851e-05
5.91271e-05
5.89341e-05
5.8586e-05
5.80573e-05
5.73168e-05
5.63277e-05
5.50486e-05
5.34352e-05
5.14433e-05
4.90327e-05
4.61733e-05
4.28525e-05
3.90833e-05
3.49134e-05
3.0432e-05
2.57725e-05
2.11069e-05
1.66302e-05
1.25362e-05
8.9895e-06
6.09332e-06
4.38561e-06
2.31057e-06
1.12673e-06
5.56947e-07
2.72567e-07
8.85078e-08
2.11548e-08
3.84178e-09
2.28688e-10
1.57894e-12
4.16307e-05
4.83298e-05
5.17958e-05
5.43267e-05
5.63575e-05
5.8053e-05
5.94634e-05
6.05997e-05
6.16008e-05
6.25076e-05
6.33271e-05
6.40603e-05
6.47053e-05
6.52597e-05
6.57206e-05
6.60845e-05
6.63465e-05
6.65002e-05
6.65361e-05
6.64407e-05
6.61957e-05
6.5777e-05
6.51542e-05
6.42902e-05
6.3142e-05
6.16613e-05
5.97972e-05
5.74992e-05
5.47228e-05
5.14362e-05
4.7629e-05
4.33222e-05
3.85774e-05
3.35041e-05
2.82605e-05
2.30449e-05
1.80764e-05
1.35658e-05
9.68607e-06
6.54654e-06
4.72776e-06
2.52075e-06
1.25868e-06
6.35927e-07
3.07749e-07
9.44939e-08
2.61471e-08
4.54808e-09
3.11682e-10
3.06085e-12
4.51911e-05
5.30131e-05
5.70768e-05
6.0023e-05
6.23607e-05
6.42869e-05
6.58857e-05
6.71596e-05
6.82128e-05
6.91453e-05
6.99759e-05
7.07118e-05
7.13541e-05
7.19023e-05
7.23541e-05
7.27059e-05
7.29522e-05
7.3085e-05
7.30929e-05
7.29599e-05
7.26646e-05
7.21789e-05
7.14677e-05
7.04888e-05
6.91932e-05
6.75265e-05
6.54317e-05
6.28532e-05
5.97428e-05
5.60678e-05
5.1821e-05
4.70311e-05
4.17736e-05
3.61765e-05
3.042e-05
2.47258e-05
1.93333e-05
1.44682e-05
1.03095e-05
6.96353e-06
5.02929e-06
2.73283e-06
1.38282e-06
7.02717e-07
3.36301e-07
1.0098e-07
2.79189e-08
4.28177e-09
3.78161e-10
3.84729e-12
4.81036e-05
5.69019e-05
6.14941e-05
6.48114e-05
6.74253e-05
6.95602e-05
7.132e-05
7.27358e-05
7.38513e-05
7.4805e-05
7.56428e-05
7.63776e-05
7.70139e-05
7.75528e-05
7.7993e-05
7.83309e-05
7.85603e-05
7.86722e-05
7.86534e-05
7.84859e-05
7.81451e-05
7.75997e-05
7.68105e-05
7.57306e-05
7.4306e-05
7.24771e-05
7.01818e-05
6.73601e-05
6.39611e-05
5.99519e-05
5.53285e-05
5.01274e-05
4.44359e-05
3.83985e-05
3.22143e-05
2.61232e-05
2.03812e-05
1.5225e-05
1.0838e-05
7.3215e-06
5.25705e-06
2.88514e-06
1.46063e-06
7.40097e-07
3.5318e-07
1.07708e-07
3.02592e-08
5.10394e-09
4.16487e-10
2.49877e-12
5.03562e-05
5.99432e-05
6.49673e-05
6.85902e-05
7.14334e-05
7.3742e-05
7.56337e-05
7.71628e-05
7.83509e-05
7.93242e-05
8.01666e-05
8.08984e-05
8.15277e-05
8.20571e-05
8.24859e-05
8.28106e-05
8.30247e-05
8.31181e-05
8.30765e-05
8.28798e-05
8.25013e-05
8.19067e-05
8.10535e-05
7.9891e-05
7.83612e-05
7.64002e-05
7.39419e-05
7.09231e-05
6.7291e-05
6.30128e-05
5.80877e-05
5.25585e-05
4.65228e-05
4.01382e-05
3.36184e-05
2.7218e-05
2.12039e-05
1.58199e-05
1.12514e-05
7.59447e-06
5.43301e-06
2.98903e-06
1.50965e-06
7.62956e-07
3.66138e-07
1.16411e-07
3.22438e-08
5.6848e-09
3.34898e-10
5.00936e-12
5.19552e-05
6.21187e-05
6.74606e-05
7.13091e-05
7.43223e-05
7.67603e-05
7.87498e-05
8.03578e-05
8.16104e-05
8.26028e-05
8.34464e-05
8.41744e-05
8.47973e-05
8.53185e-05
8.5738e-05
8.60522e-05
8.62543e-05
8.63337e-05
8.62749e-05
8.60564e-05
8.56499e-05
8.50188e-05
8.41182e-05
8.28948e-05
8.12872e-05
7.92288e-05
7.66504e-05
7.34866e-05
6.96835e-05
6.52086e-05
6.00636e-05
5.42963e-05
4.80121e-05
4.1378e-05
3.46186e-05
2.79985e-05
2.17925e-05
1.62485e-05
1.15526e-05
7.79992e-06
5.57732e-06
3.08339e-06
1.56011e-06
7.89702e-07
3.82552e-07
1.24141e-07
3.57535e-08
6.5497e-09
4.14678e-10
4.50172e-12
5.29247e-05
6.34477e-05
6.89893e-05
7.29789e-05
7.60978e-05
7.8616e-05
8.06655e-05
8.23196e-05
8.36144e-05
8.46223e-05
8.54638e-05
8.61881e-05
8.68061e-05
8.73217e-05
8.7735e-05
8.80425e-05
8.82371e-05
8.83079e-05
8.82385e-05
8.80067e-05
8.7583e-05
8.69296e-05
8.59998e-05
8.47385e-05
8.30827e-05
8.09634e-05
7.83101e-05
7.5056e-05
7.11463e-05
6.65491e-05
6.12677e-05
5.53534e-05
4.89161e-05
4.21292e-05
3.52238e-05
2.84707e-05
2.21494e-05
1.65105e-05
1.17405e-05
7.93438e-06
5.67546e-06
3.17109e-06
1.61645e-06
8.20588e-07
3.98597e-07
1.29411e-07
3.92384e-08
8.176e-09
1.07609e-09
2.52045e-11
5.32773e-05
6.39317e-05
6.95452e-05
7.3584e-05
7.67381e-05
7.92817e-05
8.13489e-05
8.30149e-05
8.43215e-05
8.53323e-05
8.61702e-05
8.68919e-05
8.75073e-05
8.80204e-05
8.84313e-05
8.87365e-05
8.89289e-05
8.89971e-05
8.89249e-05
8.86893e-05
8.82606e-05
8.76002e-05
8.6661e-05
8.53871e-05
8.37146e-05
8.1574e-05
7.8894e-05
7.56073e-05
7.1659e-05
6.70174e-05
6.16866e-05
5.57191e-05
4.92268e-05
4.23853e-05
3.54283e-05
2.86286e-05
2.2268e-05
1.6598e-05
1.18053e-05
7.98551e-06
5.69807e-06
3.22217e-06
1.64993e-06
8.40238e-07
4.08336e-07
1.34382e-07
4.13936e-08
9.58638e-09
1.62884e-09
1.26243e-10
5.30226e-05
6.35752e-05
6.91281e-05
7.31198e-05
7.62353e-05
7.87469e-05
8.07882e-05
8.24316e-05
8.37133e-05
8.47096e-05
8.55453e-05
8.62658e-05
8.68809e-05
8.73946e-05
8.78069e-05
8.81143e-05
8.83097e-05
8.83819e-05
8.83145e-05
8.8085e-05
8.76637e-05
8.70123e-05
8.60841e-05
8.48234e-05
8.31669e-05
8.10455e-05
7.83882e-05
7.51281e-05
7.12107e-05
6.66042e-05
6.13122e-05
5.53868e-05
4.89386e-05
4.21416e-05
3.52277e-05
2.84684e-05
2.21436e-05
1.6504e-05
1.17358e-05
7.93161e-06
5.63143e-06
3.20391e-06
1.63784e-06
8.32566e-07
4.04093e-07
1.31593e-07
3.96607e-08
8.6566e-09
1.15368e-09
3.41204e-11
5.2158e-05
6.23767e-05
6.77359e-05
7.15843e-05
7.45876e-05
7.70103e-05
7.89811e-05
8.05658e-05
8.17926e-05
8.27647e-05
8.35964e-05
8.43158e-05
8.49322e-05
8.54491e-05
8.58662e-05
8.61799e-05
8.63833e-05
8.64653e-05
8.64102e-05
8.6196e-05
8.57939e-05
8.51668e-05
8.42691e-05
8.30467e-05
8.14378e-05
7.93749e-05
7.67887e-05
7.36135e-05
6.97953e-05
6.53024e-05
6.01371e-05
5.43486e-05
4.80435e-05
4.13905e-05
3.46158e-05
2.79848e-05
2.17731e-05
1.62285e-05
1.15363e-05
7.79161e-06
5.49713e-06
3.12704e-06
1.58735e-06
8.02926e-07
3.87639e-07
1.24161e-07
3.57472e-08
6.94926e-09
7.00153e-10
5.24308e-12
5.06716e-05
6.03341e-05
6.53756e-05
6.89915e-05
7.18154e-05
7.40976e-05
7.59581e-05
7.74502e-05
7.86007e-05
7.9547e-05
8.03709e-05
8.10885e-05
8.17071e-05
8.22291e-05
8.26536e-05
8.29769e-05
8.31922e-05
8.3289e-05
8.32523e-05
8.30615e-05
8.26891e-05
8.20999e-05
8.12505e-05
8.00893e-05
7.85572e-05
7.65896e-05
7.41198e-05
7.10843e-05
6.74305e-05
6.31264e-05
5.81723e-05
5.26129e-05
4.6548e-05
4.01373e-05
3.35968e-05
2.71826e-05
2.1162e-05
1.57775e-05
1.12121e-05
7.56067e-06
5.32747e-06
3.02569e-06
1.52942e-06
7.70268e-07
3.68708e-07
1.15443e-07
3.25381e-08
5.91863e-09
5.61242e-10
5.18675e-12
4.8525e-05
5.7417e-05
6.20257e-05
6.53287e-05
6.79134e-05
7.00103e-05
7.17258e-05
7.3092e-05
7.41613e-05
7.50818e-05
7.58943e-05
7.66088e-05
7.72297e-05
7.77579e-05
7.81915e-05
7.85265e-05
7.87565e-05
7.88719e-05
7.88587e-05
7.86979e-05
7.83643e-05
7.78252e-05
7.70403e-05
7.59615e-05
7.45335e-05
7.26958e-05
7.03854e-05
6.75422e-05
6.41155e-05
6.00733e-05
5.54133e-05
5.01741e-05
4.44461e-05
3.83765e-05
3.21673e-05
2.60606e-05
2.03125e-05
1.51589e-05
1.0781e-05
7.27979e-06
5.11095e-06
2.92907e-06
1.4802e-06
7.45218e-07
3.53375e-07
1.07027e-07
3.0232e-08
5.292e-09
4.25267e-10
3.05421e-12
4.57152e-05
5.36443e-05
5.7722e-05
6.06459e-05
6.29442e-05
6.4821e-05
6.63626e-05
6.75763e-05
6.85782e-05
6.94711e-05
7.02696e-05
7.09793e-05
7.16016e-05
7.21353e-05
7.25778e-05
7.29249e-05
7.31707e-05
7.33064e-05
7.33198e-05
7.3194e-05
7.29061e-05
7.2427e-05
7.172e-05
7.07416e-05
6.94413e-05
6.77636e-05
6.56506e-05
6.30463e-05
5.99029e-05
5.61888e-05
5.18986e-05
4.7064e-05
4.17635e-05
3.61289e-05
3.03439e-05
2.46322e-05
1.92348e-05
1.43773e-05
1.0237e-05
6.90956e-06
4.87046e-06
2.80451e-06
1.42147e-06
7.1889e-07
3.39357e-07
9.96379e-08
2.78791e-08
4.38328e-09
2.90853e-10
3.23272e-12
4.22485e-05
4.90619e-05
5.25373e-05
5.50374e-05
5.70191e-05
5.86548e-05
5.99978e-05
6.10669e-05
6.2013e-05
6.28742e-05
6.36556e-05
6.43575e-05
6.4978e-05
6.55144e-05
6.59631e-05
6.63202e-05
6.65802e-05
6.67358e-05
6.67765e-05
6.66878e-05
6.645e-05
6.60376e-05
6.54184e-05
6.4554e-05
6.33998e-05
6.19061e-05
6.0021e-05
5.76938e-05
5.48803e-05
5.15498e-05
4.76941e-05
4.33371e-05
3.85443e-05
3.34292e-05
2.81536e-05
2.29192e-05
1.79472e-05
1.34502e-05
9.60173e-06
6.50989e-06
4.51151e-06
2.62125e-06
1.32508e-06
6.6816e-07
3.1705e-07
9.2973e-08
2.59358e-08
4.72979e-09
2.57044e-10
2.74895e-12
3.81636e-05
4.37658e-05
4.66039e-05
4.86625e-05
5.03182e-05
5.17053e-05
5.2835e-05
5.37982e-05
5.46904e-05
5.55171e-05
5.62767e-05
5.69652e-05
5.7578e-05
5.8111e-05
5.85604e-05
5.89223e-05
5.91923e-05
5.93645e-05
5.94304e-05
5.93781e-05
5.91914e-05
5.88487e-05
5.83228e-05
5.75808e-05
5.65844e-05
5.52907e-05
5.36544e-05
5.16308e-05
4.91803e-05
4.62739e-05
4.29012e-05
3.90783e-05
3.48568e-05
3.03303e-05
2.56362e-05
2.09501e-05
1.64691e-05
1.23867e-05
8.86403e-06
6.00057e-06
4.18139e-06
2.38997e-06
1.18291e-06
5.90301e-07
2.85655e-07
8.70783e-08
2.12726e-08
4.06156e-09
2.36755e-10
1.21592e-12
3.35471e-05
3.79176e-05
4.01266e-05
4.17564e-05
4.30988e-05
4.42395e-05
4.51873e-05
4.60683e-05
4.69046e-05
4.76915e-05
4.84217e-05
4.90878e-05
4.96835e-05
5.02037e-05
5.06447e-05
5.10032e-05
5.1276e-05
5.14586e-05
5.15448e-05
5.15254e-05
5.13874e-05
5.11135e-05
5.06814e-05
5.00641e-05
4.92297e-05
4.81424e-05
4.67641e-05
4.50568e-05
4.2986e-05
4.05254e-05
3.76629e-05
3.44081e-05
3.07988e-05
2.69084e-05
2.28486e-05
1.87665e-05
1.48334e-05
1.12229e-05
8.0845e-06
5.52333e-06
3.83826e-06
2.19876e-06
1.06553e-06
5.16154e-07
2.50284e-07
9.8023e-08
2.50309e-08
4.25249e-09
2.80959e-10
1.40077e-12
2.85478e-05
3.17525e-05
3.33852e-05
3.46277e-05
3.56871e-05
3.65974e-05
3.7421e-05
3.82245e-05
3.90009e-05
3.97393e-05
4.04288e-05
4.10599e-05
4.16254e-05
4.21203e-05
4.25411e-05
4.28856e-05
4.31516e-05
4.33363e-05
4.34356e-05
4.34427e-05
4.3348e-05
4.31381e-05
4.27955e-05
4.22989e-05
4.16228e-05
4.07384e-05
3.96148e-05
3.8221e-05
3.6528e-05
3.4513e-05
3.21638e-05
2.94841e-05
2.64999e-05
2.32651e-05
1.98656e-05
1.64192e-05
1.30681e-05
9.96423e-06
7.24427e-06
5.00088e-06
3.6221e-06
2.10324e-06
1.02031e-06
4.85076e-07
2.28313e-07
9.14105e-08
2.55723e-08
4.17502e-09
2.48496e-10
1.48308e-12
2.33816e-05
2.55695e-05
2.67157e-05
2.76343e-05
2.8453e-05
2.91843e-05
2.99104e-05
3.06349e-05
3.13434e-05
3.2021e-05
3.26552e-05
3.3236e-05
3.37562e-05
3.42113e-05
3.45989e-05
3.49174e-05
3.5166e-05
3.53434e-05
3.54471e-05
3.54728e-05
3.54136e-05
3.52598e-05
3.49983e-05
3.46129e-05
3.4084e-05
3.33894e-05
3.25051e-05
3.14068e-05
3.00715e-05
2.84803e-05
2.66217e-05
2.44957e-05
2.21185e-05
1.95271e-05
1.67836e-05
1.39768e-05
1.12193e-05
8.63936e-06
6.36353e-06
4.49039e-06
3.20166e-06
2.0167e-06
1.01474e-06
4.80891e-07
2.17853e-07
8.46702e-08
2.40255e-08
3.96723e-09
2.53318e-10
1.50303e-12
1.83176e-05
1.96978e-05
2.04675e-05
2.11335e-05
2.17548e-05
2.23664e-05
2.30006e-05
2.36411e-05
2.42704e-05
2.4873e-05
2.54363e-05
2.5951e-05
2.6411e-05
2.68127e-05
2.71544e-05
2.74359e-05
2.76571e-05
2.78181e-05
2.79178e-05
2.79536e-05
2.79211e-05
2.78136e-05
2.76217e-05
2.73336e-05
2.6935e-05
2.64094e-05
2.57392e-05
2.4906e-05
2.38924e-05
2.26839e-05
2.12705e-05
1.96503e-05
1.78322e-05
1.58399e-05
1.37151e-05
1.15196e-05
9.33538e-06
7.26005e-06
5.39904e-06
3.84073e-06
2.54899e-06
1.49746e-06
7.76589e-07
3.58857e-07
1.52299e-07
5.21853e-08
1.23166e-08
1.84612e-09
7.90647e-11
4.42887e-13
1.36412e-05
1.4444e-05
1.49474e-05
1.54286e-05
1.59072e-05
1.64218e-05
1.69629e-05
1.75116e-05
1.80504e-05
1.85649e-05
1.90439e-05
1.94797e-05
1.98676e-05
2.02052e-05
2.04919e-05
2.07281e-05
2.09146e-05
2.10521e-05
2.11407e-05
2.11791e-05
2.11647e-05
2.1093e-05
2.09578e-05
2.07508e-05
2.04619e-05
2.00797e-05
1.95914e-05
1.89842e-05
1.82456e-05
1.73649e-05
1.63344e-05
1.51516e-05
1.3821e-05
1.23565e-05
1.07843e-05
9.14441e-06
7.49118e-06
5.8904e-06
4.41655e-06
3.14635e-06
2.09893e-06
1.25333e-06
6.6667e-07
3.17861e-07
1.30243e-07
4.30164e-08
1.04081e-08
1.41155e-09
6.96002e-11
4.06018e-13
9.59764e-06
1.00322e-05
1.03608e-05
1.07071e-05
1.10889e-05
1.15117e-05
1.19574e-05
1.2408e-05
1.28484e-05
1.32664e-05
1.36533e-05
1.40033e-05
1.43131e-05
1.45816e-05
1.48089e-05
1.49959e-05
1.5144e-05
1.52542e-05
1.53272e-05
1.53625e-05
1.53587e-05
1.53132e-05
1.52218e-05
1.50791e-05
1.48783e-05
1.46118e-05
1.42708e-05
1.38468e-05
1.33313e-05
1.2717e-05
1.19985e-05
1.11736e-05
1.02442e-05
9.21836e-06
8.11112e-06
6.94681e-06
5.75936e-06
4.59046e-06
3.48645e-06
2.50321e-06
1.67756e-06
1.02152e-06
5.5548e-07
2.66882e-07
1.09341e-07
3.58624e-08
8.53935e-09
1.17797e-09
5.87942e-11
3.43139e-13
6.34102e-06
6.56652e-06
6.78554e-06
7.04005e-06
7.34078e-06
7.67447e-06
8.02439e-06
8.37566e-06
8.71617e-06
9.03679e-06
9.33125e-06
9.59577e-06
9.82854e-06
1.00292e-05
1.01985e-05
1.03376e-05
1.04478e-05
1.05303e-05
1.05859e-05
1.06148e-05
1.06163e-05
1.05887e-05
1.05296e-05
1.04355e-05
1.03021e-05
1.01244e-05
9.89703e-06
9.61425e-06
9.27075e-06
8.86184e-06
8.38413e-06
7.83604e-06
7.21855e-06
6.53589e-06
5.79645e-06
5.01373e-06
4.20739e-06
3.4026e-06
2.62702e-06
1.91549e-06
1.30187e-06
8.08154e-07
4.48686e-07
2.18374e-07
9.00519e-08
2.96286e-08
7.02938e-09
9.7209e-10
4.86516e-11
2.84084e-13
3.90807e-06
4.02665e-06
4.17672e-06
4.36495e-06
4.5916e-06
4.84132e-06
5.10046e-06
5.35779e-06
5.60462e-06
5.83479e-06
6.04433e-06
6.23113e-06
6.39443e-06
6.53449e-06
6.65215e-06
6.74858e-06
6.82501e-06
6.88247e-06
6.92172e-06
6.94304e-06
6.94618e-06
6.93026e-06
6.89381e-06
6.83475e-06
6.75046e-06
6.63788e-06
6.49367e-06
6.31442e-06
6.0969e-06
5.83833e-06
5.5367e-06
5.19114e-06
4.80223e-06
4.37237e-06
3.90611e-06
3.41059e-06
2.89613e-06
2.3767e-06
1.86805e-06
1.38978e-06
9.64767e-07
6.13123e-07
3.48652e-07
1.72931e-07
7.22059e-08
2.39405e-08
5.69241e-09
7.88139e-10
3.94668e-11
2.30438e-13
2.22769e-06
2.2945e-06
2.39651e-06
2.53314e-06
2.69464e-06
2.86967e-06
3.04861e-06
3.22389e-06
3.38994e-06
3.5431e-06
3.68122e-06
3.80336e-06
3.90944e-06
3.99994e-06
4.07568e-06
4.1376e-06
4.18665e-06
4.22363e-06
4.24911e-06
4.26338e-06
4.26638e-06
4.25765e-06
4.23636e-06
4.20134e-06
4.15106e-06
4.08374e-06
3.99747e-06
3.89027e-06
3.76032e-06
3.60605e-06
3.4264e-06
3.22094e-06
2.99009e-06
2.73528e-06
2.45907e-06
2.1652e-06
1.85883e-06
1.54701e-06
1.23798e-06
9.41732e-07
6.70887e-07
4.38903e-07
2.5719e-07
1.31001e-07
5.57916e-08
1.87358e-08
4.48264e-09
6.22189e-10
3.11762e-11
1.82002e-13
1.16028e-06
1.20155e-06
1.27027e-06
1.36247e-06
1.469e-06
1.58214e-06
1.69576e-06
1.80529e-06
1.90764e-06
2.00094e-06
2.08427e-06
2.15738e-06
2.22048e-06
2.27406e-06
2.31874e-06
2.35519e-06
2.38404e-06
2.40582e-06
2.42093e-06
2.42957e-06
2.43174e-06
2.42723e-06
2.41559e-06
2.39618e-06
2.36819e-06
2.33065e-06
2.2825e-06
2.2227e-06
2.15025e-06
2.06436e-06
1.96449e-06
1.85046e-06
1.72258e-06
1.58168e-06
1.42919e-06
1.26714e-06
1.09808e-06
9.25392e-07
7.53031e-07
5.85639e-07
4.29068e-07
2.90324e-07
1.76615e-07
9.33091e-08
4.09599e-08
1.40449e-08
3.39874e-09
4.74016e-10
2.37831e-11
1.38827e-13
5.41904e-07
5.68485e-07
6.12339e-07
6.69246e-07
7.33112e-07
7.99314e-07
8.64423e-07
9.26092e-07
9.82884e-07
1.03405e-06
1.07932e-06
1.11876e-06
1.15261e-06
1.18124e-06
1.20504e-06
1.22442e-06
1.23976e-06
1.25135e-06
1.25942e-06
1.26411e-06
1.26542e-06
1.26325e-06
1.25739e-06
1.24751e-06
1.23321e-06
1.214e-06
1.18935e-06
1.15874e-06
1.12168e-06
1.07777e-06
1.02678e-06
9.68646e-07
9.03555e-07
8.31964e-07
7.54631e-07
6.72605e-07
5.87169e-07
4.99897e-07
4.12609e-07
3.27323e-07
2.46418e-07
1.72793e-07
1.09824e-07
6.08836e-08
2.79588e-08
9.9229e-09
2.45076e-09
3.44883e-10
1.73485e-11
1.01271e-13
2.20402e-07
2.36829e-07
2.62381e-07
2.9367e-07
3.27536e-07
3.61655e-07
3.94441e-07
4.24922e-07
4.52588e-07
4.77241e-07
4.98877e-07
5.17611e-07
5.33621e-07
5.47117e-07
5.58316e-07
5.67425e-07
5.74629e-07
5.80081e-07
5.83891e-07
5.86123e-07
5.86788e-07
5.85844e-07
5.83194e-07
5.78694e-07
5.72157e-07
5.63362e-07
5.52072e-07
5.38048e-07
5.21075e-07
5.00978e-07
4.77654e-07
4.5109e-07
4.21384e-07
3.88757e-07
3.53568e-07
3.16313e-07
2.77594e-07
2.3812e-07
1.98687e-07
1.60145e-07
1.23403e-07
8.94768e-08
5.95468e-08
3.49846e-08
1.71198e-08
6.42854e-09
1.64869e-09
2.3614e-10
1.1939e-11
6.97163e-14
7.46556e-08
8.38367e-08
9.65837e-08
1.11241e-07
1.26467e-07
1.41327e-07
1.5526e-07
1.6798e-07
1.79376e-07
1.89437e-07
1.98211e-07
2.05775e-07
2.12219e-07
2.17641e-07
2.22134e-07
2.25786e-07
2.28674e-07
2.30861e-07
2.32394e-07
2.33298e-07
2.33579e-07
2.33221e-07
2.32187e-07
2.30419e-07
2.27845e-07
2.24377e-07
2.19923e-07
2.1439e-07
2.07692e-07
1.99765e-07
1.90567e-07
1.80098e-07
1.68399e-07
1.55561e-07
1.4173e-07
1.27106e-07
1.11935e-07
9.65004e-08
8.11183e-08
6.61204e-08
5.18415e-08
3.86167e-08
2.67858e-08
1.67209e-08
8.86355e-09
3.63123e-09
9.99202e-10
1.48585e-10
7.59672e-12
4.44033e-14
1.96236e-08
2.38342e-08
2.8897e-08
3.43616e-08
3.97873e-08
4.49088e-08
4.95998e-08
5.38158e-08
5.75546e-08
6.08342e-08
6.36822e-08
6.61305e-08
6.82129e-08
6.99626e-08
7.14118e-08
7.25895e-08
7.3521e-08
7.42271e-08
7.47227e-08
7.50167e-08
7.51108e-08
7.49998e-08
7.46721e-08
7.41094e-08
7.32883e-08
7.21811e-08
7.07581e-08
6.89897e-08
6.6849e-08
6.4315e-08
6.13757e-08
5.80306e-08
5.42937e-08
5.01952e-08
4.57823e-08
4.11196e-08
3.62874e-08
3.13783e-08
2.64953e-08
2.17463e-08
1.72392e-08
1.30768e-08
9.35192e-09
6.14592e-09
3.53839e-09
1.62822e-09
5.07446e-10
8.21348e-11
4.32298e-12
2.53407e-14
3.57538e-09
4.92808e-09
6.35903e-09
7.80182e-09
9.16756e-09
1.04172e-08
1.15405e-08
1.25391e-08
1.34191e-08
1.41883e-08
1.48547e-08
1.54268e-08
1.5913e-08
1.63213e-08
1.66594e-08
1.69341e-08
1.71515e-08
1.73164e-08
1.74323e-08
1.75013e-08
1.75239e-08
1.74987e-08
1.74231e-08
1.72929e-08
1.71025e-08
1.68456e-08
1.65151e-08
1.61042e-08
1.56067e-08
1.50177e-08
1.43345e-08
1.3557e-08
1.26885e-08
1.17361e-08
1.0711e-08
9.62816e-09
8.50649e-09
7.36782e-09
6.2363e-09
5.13746e-09
4.09691e-09
3.13895e-09
2.2851e-09
1.55236e-09
9.523e-10
4.92627e-10
1.84091e-10
3.58792e-11
2.06357e-12
1.22323e-14
3.71087e-10
6.10569e-10
8.40067e-10
1.05555e-09
1.25091e-09
1.42572e-09
1.58114e-09
1.71859e-09
1.83938e-09
1.94479e-09
2.03603e-09
2.11432e-09
2.18082e-09
2.23665e-09
2.28288e-09
2.32045e-09
2.35018e-09
2.37275e-09
2.38863e-09
2.39812e-09
2.40126e-09
2.39789e-09
2.38763e-09
2.3699e-09
2.34393e-09
2.30886e-09
2.26372e-09
2.20756e-09
2.13954e-09
2.059e-09
1.96555e-09
1.85919e-09
1.74038e-09
1.6101e-09
1.46988e-09
1.32179e-09
1.16842e-09
1.01278e-09
8.58184e-10
7.08151e-10
5.66212e-10
4.35734e-10
3.19712e-10
2.2054e-10
1.39783e-10
7.79716e-11
3.46305e-11
9.22889e-12
7.03299e-13
4.42044e-15