/*--------------------------------*- C++ -*----------------------------------*\
| =========                 |                                                 |
| \\      /  F ield         | foam-extend: Open Source CFD                    |
|  \\    /   O peration     | Version:     4.0                                |
|   \\  /    A nd           | Web:         http://www.foam-extend.org         |
|    \\/     M anipulation  |                                                 |
\*---------------------------------------------------------------------------*/
FoamFile
{
    version     2.0;
    format      ascii;
    class       volScalarField;
    location    "0.0007";
    object      omega;
}
// * * * * * * * * * * * * * * * * * * * * * * * * * * * * * * * * * * * * * //

dimensions      [0 0 -1 0 0 0 0];

internalField   nonuniform List<scalar> 
28770
(
1.87595e+07
1.87595e+07
1.87595e+07
1.87595e+07
1.87595e+07
1.87595e+07
1.87595e+07
1.87595e+07
1.87595e+07
1.87595e+07
1.87595e+07
1.87595e+07
1.87595e+07
1.87595e+07
1.87595e+07
1.87595e+07
1.87595e+07
1.87595e+07
1.87595e+07
1.87595e+07
1.87595e+07
1.87595e+07
1.87595e+07
1.87595e+07
1.87595e+07
1.87595e+07
1.87595e+07
1.87595e+07
1.87595e+07
1.87595e+07
1.87595e+07
1.87595e+07
1.87595e+07
1.87595e+07
1.87595e+07
1.87595e+07
1.87595e+07
1.87595e+07
1.87595e+07
1.87595e+07
1.87595e+07
1.87595e+07
1.87595e+07
1.87595e+07
1.87595e+07
1.87595e+07
1.87595e+07
1.87595e+07
1.87595e+07
1.87595e+07
2.70014e+06
3.18574e+06
3.23008e+06
3.23475e+06
3.23538e+06
3.23549e+06
3.23552e+06
3.23553e+06
3.23554e+06
3.23554e+06
3.23554e+06
3.23554e+06
3.23554e+06
3.23554e+06
3.23554e+06
3.23554e+06
3.23554e+06
3.23554e+06
3.23554e+06
3.23554e+06
3.23554e+06
3.23554e+06
3.23554e+06
3.23554e+06
3.23554e+06
3.23554e+06
3.23555e+06
3.23555e+06
3.23555e+06
3.23555e+06
3.23555e+06
3.23555e+06
3.23555e+06
3.23555e+06
3.23555e+06
3.23556e+06
3.23556e+06
3.23556e+06
3.23557e+06
3.23557e+06
3.23559e+06
3.23561e+06
3.23568e+06
3.23586e+06
3.23644e+06
3.23892e+06
3.25306e+06
3.36211e+06
4.43128e+06
1.79872e+07
679429
1.01714e+06
1.08474e+06
1.09848e+06
1.10156e+06
1.10235e+06
1.10259e+06
1.10267e+06
1.1027e+06
1.10272e+06
1.10272e+06
1.10273e+06
1.10273e+06
1.10273e+06
1.10273e+06
1.10273e+06
1.10273e+06
1.10273e+06
1.10273e+06
1.10273e+06
1.10273e+06
1.10273e+06
1.10273e+06
1.10273e+06
1.10273e+06
1.10273e+06
1.10273e+06
1.10273e+06
1.10274e+06
1.10274e+06
1.10274e+06
1.10274e+06
1.10274e+06
1.10274e+06
1.10275e+06
1.10275e+06
1.10276e+06
1.10278e+06
1.10281e+06
1.10287e+06
1.10298e+06
1.10322e+06
1.10379e+06
1.10531e+06
1.1099e+06
1.12603e+06
1.19192e+06
1.50335e+06
3.24976e+06
1.79872e+07
228623
431013
496278
516083
522235
524270
525000
525287
525410
525466
525494
525509
525517
525522
525525
525527
525528
525529
525529
525530
525530
525531
525531
525532
525532
525533
525534
525535
525537
525540
525543
525548
525555
525566
525582
525607
525649
525720
525844
526075
526525
527464
529564
534663
548178
587436
712735
1.16002e+06
3.12319e+06
1.79872e+07
96123.6
214083
266525
287539
295789
299095
300476
301084
301367
301507
301579
301619
301641
301654
301662
301667
301671
301673
301675
301676
301677
301678
301679
301680
301681
301683
301685
301689
301693
301699
301709
301722
301742
301771
301817
301888
302005
302199
302535
303140
304279
306532
311242
321669
346212
407823
574733
1.08478e+06
3.10622e+06
1.79872e+07
47930
118614
157778
176996
186003
190199
192185
193154
193643
193900
194040
194119
194165
194194
194211
194222
194229
194234
194238
194240
194242
194244
194246
194249
194251
194255
194260
194267
194277
194291
194311
194340
194384
194449
194548
194703
194951
195356
196041
197234
199389
203433
211343
227493
262030
340009
530311
1.06585e+06
3.1032e+06
1.79872e+07
27111.5
71382.7
100008
116322
125091
129700
132122
133411
134112
134503
134726
134858
134938
134988
135019
135040
135053
135063
135069
135074
135078
135082
135085
135089
135095
135101
135111
135124
135142
135169
135206
135261
135342
135462
135644
135924
136362
137065
138220
140166
143539
149566
160679
181889
224030
312398
514673
1.06036e+06
3.10248e+06
1.79872e+07
16822.7
45905.4
66848.9
80200.8
88191.8
92825.2
95481.4
97006.8
97892.1
98414
98727.4
98919.5
99039.7
99116.3
99166.1
99199
99221.3
99236.7
99247.6
99255.9
99262.5
99268.5
99274.6
99281.6
99290.3
99301.8
99317.5
99339.4
99370.3
99414.1
99477
99567.8
99700.3
99895.8
100188
100630
101310
102377
104082
106863
111505
119439
133361
158544
205921
300435
508668
1.05852e+06
3.10227e+06
1.79872e+07
11202.6
31210.5
46692.5
57449.2
64461
68867
71585.1
73252
74277
74912.4
75311.1
75564.7
75728.4
75835.7
75907.1
75955.3
75988.3
76011.5
76028.2
76040.8
76051.1
76060.4
76069.8
76080.6
76094
76111.7
76135.9
76169.5
76216.7
76283.5
76378.7
76515.3
76712.9
77001.1
77425.8
78059.1
79016
80482.6
82766.3
86382.9
92216.6
101819
117998
146077
196869
294921
506147
1.05782e+06
3.10219e+06
1.79872e+07
7892
22216.4
33859.7
42506.3
48538.5
52587.3
55244.1
56968.3
58083.9
58807.6
59280.2
59591.4
59798.5
59937.8
60032.6
60097.8
60143.3
60175.6
60199.3
60217.3
60232
60245.4
60259
60274.5
60293.9
60319.4
60354
60402
60469.1
60563.6
60697.5
60888
61161
61554.7
62127.2
62967.6
64214.4
66085.7
68930.8
73317.8
80189.7
91152
109040
139132
192092
292181
504969
1.05751e+06
3.10215e+06
1.79872e+07
5831.77
16456.2
25377.5
32371
37519.3
41165.7
43686.1
45403.3
46565.2
47350
47881.3
48242.7
48490.1
48660.6
48779.2
48862.3
48921.2
48963.6
48995
49019.2
49039.2
49057.4
49076
49097.2
49123.5
49158
49204.9
49269.5
49359.4
49485.3
49662.4
49912.5
50267.2
50773.1
51499.2
52549
54080
56333.9
59688.2
64741.4
72463.4
84473.2
103590
135032
189341
290617
504275
1.05731e+06
3.10213e+06
1.79872e+07
4499.18
12641.8
19640
25332.2
29716.4
32964.4
35310.4
36977.3
38150
38971.1
39545.4
39947.6
40230.1
40429.4
40570.7
40671.6
40744.2
40797.3
40837
40867.9
40893.7
40917.3
40941.4
40968.9
41003.1
41047.8
41108.1
41190.9
41305.6
41465.2
41688.1
42000.2
42438.7
43057.3
43934.1
45183.8
46977.5
49572.6
53362.4
58958.9
67337.5
80106.3
100053
132340
187433
289367
503537
1.05696e+06
3.10205e+06
1.79872e+07
3613.52
10049.5
15662.6
20345.5
24093.8
26976.1
29136.5
30727.5
31885.5
32722.4
33325
33758.2
34069.8
34294.3
34456.5
34574.1
34660.2
34723.8
34772
34809.9
34841.8
34871.2
34901.3
34935.7
34978.2
35033.6
35108.2
35210
35350.3
35544.4
35813.5
36187.3
36707.6
37433.9
38451.2
39882.2
41906.4
44789.5
48931.1
54944.5
63796.2
77064
97495
130193
185568
287644
501922
1.05568e+06
3.1015e+06
1.79872e+07
3014.21
8255.06
12862.8
16766.6
19990.1
22552.2
24532.4
26035.8
27162.6
27999.8
28618.1
29073.3
29407.7
29653.2
29833.7
29966.7
30065.2
30139
30195.5
30240.5
30278.6
30313.8
30350.2
30391.6
30442.7
30509.2
30598.1
30719.1
30884.8
31112.7
31426.5
31859
32455.8
33280.6
34423.1
36011
38227.7
41340.9
45748.4
52057.3
61220.2
74749.7
95339.1
127995
182993
284211
497135
1.04964e+06
3.09629e+06
1.79872e+07
2603.99
6996
10867.3
14185.6
16973.2
19258.7
21072.6
22486
23572.3
24399
25023.5
25492.7
25844.1
26106.5
26302.4
26448.8
26558.6
26641.8
26706.2
26757.9
26802
26843.2
26885.7
26934.2
26993.9
27071.2
27174.2
27313.7
27503.8
27763.6
28119
28605.3
29270.9
30182.3
31432.3
33150.3
35520.2
38805.9
43396.2
49884.6
59243.6
72812.9
93246.5
125344
178957
277035
482973
1.02053e+06
3.04091e+06
1.79872e+07
2321.51
6104.72
9434.3
12309.8
14746.4
16793.7
18460.9
19788.2
20830.4
21639.9
22263.4
22740.5
23103.7
23379.1
23587.6
23745.2
23864.9
23956.6
24028.2
24086.2
24136.1
24182.9
24231.4
24286.6
24354.6
24442.3
24558.7
24715.5
24928.1
25217.1
25610
26143.9
26869.2
27854.3
29193.1
31015.3
33502
36909.5
41605.8
48124.6
54722.5
67699.1
85881.4
113876
159374
239363
397252
770896
2.00892e+06
1.20424e+07
2126.69
5470.22
8399.85
10940.3
13107.2
14947.9
16486.4
17734.5
18732.5
19521.5
20139.4
20619.6
20990.4
21275.4
21493.7
21660.7
21788.7
21887.7
21965.7
22029.5
22084.7
22136.8
22190.8
22252.5
22328.2
22425.5
22554.2
22726.7
22959.6
23274.5
23700.2
24275
25050.7
26096.4
27506.5
29409.5
31983.2
35477.6
40251
46834.1
53463.2
66217.3
84084.4
111351
155302
232041
383263
747056
2.01434e+06
1.24057e+07
1992.6
5017.04
7650.78
9938.09
11899.3
13569.3
14992.8
16171.6
17128.3
17895.7
18505.2
18985.2
19360.5
19652.2
19878
20052.5
20187.4
20292.6
20376.2
20445
20505
20561.9
20621.1
20688.6
20771.3
20877.3
21016.9
21203.5
21454.1
21791.3
22244.8
22853.8
23670.7
24765
26230.5
28194.1
30830.1
34382.4
39199.2
45795.5
52431.8
64954.2
82512.1
109144
151884
226479
373650
730690
1.98889e+06
1.23852e+07
1900.8
4693.08
7107.86
9204.58
11008.8
12547.7
13867.9
14985.7
15905
16651.5
17251.4
17729.2
18106.6
18402.9
18634.3
18814.5
18955
19065.4
19153.7
19226.9
19291.1
19352.2
19416
19488.7
19577.6
19691.2
19840.5
20039
20304.7
20660.7
21137.2
21774
22623.7
23755.7
25262.9
27270.2
29948.4
33535.2
38369.6
44951.3
51571.7
63874.9
81142
107204
148747
233710
388337
766453
2.12099e+06
1.69429e+07
1838.5
4461.9
6714.97
8668.87
10353.6
11794.7
13028.6
14089.9
14977.3
15704.9
16295.2
16769.7
17147.8
17447
17682.4
17867
18011.9
18126.5
18218.7
18295.5
18363.3
18428.1
18495.8
18573
18667.3
18787.5
18944.8
19153.5
19431.7
19803
20298.1
20956.9
21832
22992.4
24529.8
26567.1
29271.5
32874.9
37707.9
44257
50844.2
62942.7
79942.9
105525
146209
229263
379622
745916
2.07427e+06
1.69163e+07
1796.73
4297.84
6432.24
8280.06
9874.86
11242.5
12411.6
13421.5
14281
14992.1
15573.6
16044.4
16422.3
16723.2
16961.4
17149.3
17297.6
17415.5
17510.8
17590.7
17661.5
17729.3
17800.3
17881.4
17980.1
18105.7
18269.8
18486.7
18775
19158.5
19668.1
20343.9
21238
22419.1
23977.4
26033.9
28752.3
32359.2
37177.1
43680.6
50220.9
62122.7
78867.4
104025
144014
225724
374076
737890
2.06703e+06
1.69157e+07
1769.19
4182.84
6231.34
8001.6
9530
10842.9
11965.9
12932.9
13766.6
14464.7
15038.8
15506.2
15883.4
16185.2
16425.4
16615.7
16766.5
16886.9
16984.8
17067.1
17140.2
17210.5
17284.2
17368.3
17470.7
17600.7
17770.1
17993.5
18289.7
18682.6
19203.3
19891.6
20799.5
21995
23567.1
25634.7
28358.3
31959.6
36753.4
43202.3
49686.1
61386.2
77859.3
102563
141796
221880
367404
723990
2.0247e+06
1.67947e+07
1751.52
4104.26
6092.34
7807.62
9288.57
10562.1
11652.7
12588.6
13399.4
14087
14655.3
15119.9
15496.2
15798.6
16040.1
16232.1
16384.7
16507
16606.7
16690.8
16765.8
16838
16913.8
17000.2
17105.4
17238.7
17412.2
17640.5
17942.5
18342.4
18871
19568.2
20485.8
21690.7
23271.4
25344.5
28067.8
31658.5
36423.8
42814.6
49240.6
60724
76891.2
101044
139257
216754
357073
696934
2.07575e+06
1.19265e+07
1740.75
4053.51
6001.59
7680.24
9129.4
10376.4
11445.2
12361.1
13154
13832.9
14397.3
14860
15235.7
15538.4
15780.6
15973.7
16127.7
16251.2
16352.2
16437.5
16513.8
16587.3
16664.6
16752.8
16859.9
16995.6
17171.8
17403.6
17709.7
18114.2
18648.2
19351.4
20275.1
21486
23071.3
25146.6
27867.1
31446
36184.4
42521.8
48902.2
60159
76001.7
99512
136381
210017
341602
659082
1.98857e+06
1.18235e+07
1735
4024.79
5949.7
7607.02
9037.61
10269.1
11325.2
12230
13011.1
13683.6
14246.2
14707.8
15083.2
15386
15628.7
15822.4
15977.1
16101.4
16203.1
16289.2
16366.3
16440.7
16518.8
16608
16716.3
16853.4
17031.4
17265.1
17573.6
17981
18518.1
19224.7
20151.9
21366
22953.6
25029.4
27746.9
31316.7
36035.4
42334
48695.8
59743.2
75304
98208
133660
202765
320751
584516
1.29224e+06
5.51286e+06
1733.53
4015.89
5933.16
7583.42
9007.84
10234.2
11286.2
12187.5
12964.2
13634.1
14196.3
14657.7
15033
15335.8
15578.7
15772.6
15927.5
16052.1
16154.1
16240.4
16317.8
16392.4
16470.9
16560.4
16669.1
16806.7
16985.2
17219.6
17528.9
17937.2
18475.3
19183
20111.3
21326.4
22914.8
24990.5
27706.8
31273.2
35984.5
42268.8
48653.4
59544.7
74956.9
97524.1
132127
198774
307354
524719
967211
1.97615e+06
1736.14
4026.1
5950.84
7607.93
9038.29
10269.6
11325.6
12230.2
13011.3
13683.8
14246.3
14708
15083.3
15386.1
15628.8
15822.6
15977.2
16101.5
16203.2
16289.4
16366.4
16440.8
16519
16608.1
16716.4
16853.6
17031.5
17265.3
17573.7
17981.1
18518.2
19224.7
20151.9
21365.9
22953.6
25029.3
27746.8
31316.6
36035.2
42333.8
48781.6
59611.6
75075
97759.4
132663
201262
315856
563536
1.23035e+06
4.58363e+06
1743.08
4056.15
6003.88
7682.04
9130.73
10377.3
11445.9
12361.6
13154.4
13833.3
14397.6
14860.3
15236
15538.6
15780.9
15974
16127.9
16251.4
16352.4
16437.8
16514.1
16587.6
16664.9
16753
16860.1
16995.9
17172.1
17403.8
17709.9
18114.4
18648.4
19351.5
20275.1
21485.9
23071.2
25146.5
27866.9
31445.8
36184.1
42521.4
49058.3
59927.8
75618.4
98806.7
134941
208138
336643
643990
1.63981e+06
1.17252e+07
1755.1
4108.27
6095.8
7810.32
9290.56
10563.5
11653.7
12589.4
13400.1
14087.6
14655.8
15120.3
15496.6
15799
16040.4
16232.4
16385.1
16507.3
16607
16691.1
16766.1
16838.3
16914.2
17000.6
17105.7
17239.1
17412.5
17640.8
17942.8
18342.6
18871.2
19568.3
20485.7
21690.6
23271.2
25344.3
28067.5
31658.1
36423.4
42814
49453.6
60425
76428
100263
137830
215180
353689
689265
1.7483e+06
1.19173e+07
1774.07
4188.29
6236.03
8005.25
9532.67
10844.7
11967.2
12933.9
13767.5
14465.4
15039.5
15506.8
15883.9
16185.7
16425.8
16616.1
16766.9
16887.4
16985.2
17067.5
17140.7
17211
17284.7
17368.8
17471.2
17601.2
17770.5
17993.9
18290.1
18682.9
19203.4
19891.6
20799.5
21994.8
23566.8
25634.4
28357.9
31959.2
36752.9
43201.7
49944.9
61043.5
77366.4
101805
140562
220707
365081
717584
1.9915e+06
1.63349e+07
1802.99
4304.84
6438.26
8284.71
9878.25
11244.9
12413.3
13422.8
14282
14993
15574.4
16045.1
16422.9
16723.7
16961.9
17149.8
17298.1
17416
17511.3
17591.2
17662
17729.9
17800.9
17881.9
17980.6
18106.3
18270.3
18487.2
18775.4
19158.8
19668.3
20343.9
21237.9
22418.8
23977.1
26033.5
28751.8
32358.7
37176.6
43680
50522.8
61743.6
78354.8
103292
142919
224814
372601
735397
2.06314e+06
1.69146e+07
1846.19
4470.52
6722.36
8674.57
10357.7
11797.5
13030.6
14091.5
14978.6
15706
16296.2
16770.5
17148.5
17447.6
17683
17867.6
18012.5
18127
18219.3
18296.1
18364
18428.7
18496.5
18573.7
18667.9
18788.1
18945.4
19154
19432.1
19803.3
20298.2
20956.9
21831.8
22992
24529.3
26566.5
29270.8
32874.3
37707.3
44256.4
51195.2
62519.5
79391.1
104757
145082
228324
378082
743554
2.07216e+06
1.69161e+07
1909.94
4703.34
7116.61
9211.26
11013.6
12551
13870.3
14987.6
15906.4
16652.7
17252.5
17730.1
18107.5
18403.7
18635
18815.2
18955.7
19066.1
19154.4
19227.6
19291.8
19352.9
19416.7
19489.4
19578.3
19691.9
19841.1
20039.6
20305.2
20661
21137.3
21774
22623.4
23755.3
25262.3
27269.5
29947.7
33534.5
38368.9
44950.8
51984.8
63391.8
80521.9
106332
147410
232461
385660
758819
2.09676e+06
1.69198e+07
2003.12
5028.84
7660.76
9945.59
11904.5
13572.8
14995.4
16173.6
17129.9
17897
18506.3
18986.2
19361.4
19653.1
19878.8
20053.2
20188.1
20293.3
20376.9
20445.7
20505.8
20562.6
20621.8
20689.4
20772
20878
21017.6
21204
21454.5
21791.5
22244.8
22853.7
23670.3
24764.4
26229.7
28193.2
30829.3
34381.5
39198.6
45795.1
52924.7
64393.4
81802.8
108141
150297
223958
368296
716134
1.93333e+06
1.21638e+07
2138.45
5483.34
8410.8
10948.4
13112.6
14951.5
16489.1
17736.6
18734.2
19522.9
20140.6
20620.6
20991.3
21276.3
21494.5
21661.5
21789.5
21888.4
21966.4
22030.2
22085.4
22137.5
22191.6
22253.2
22328.9
22426.1
22554.8
22727.3
22960
23274.7
23700.2
24274.8
25050.2
26095.8
27505.7
29408.5
31982.3
35476.7
40250.3
46833.7
54060.7
65560
83270.6
110210
153532
229141
378435
739978
2.00776e+06
1.24058e+07
2334.27
6118.8
9445.78
12317.9
14751.7
16797.3
18463.6
19790.2
20832
21641.3
22264.6
22741.5
23104.6
23380
23588.4
23746
23865.6
23957.3
24028.8
24086.8
24136.8
24183.6
24232
24287.3
24355.2
24442.9
24559.2
24715.9
24928.4
25217.3
25610
26143.7
26868.8
27853.7
29192.3
31014.3
33501
36908.6
41605.1
48124.2
55480.1
66929.5
84955.1
112574
157243
235391
389165
755756
2.01699e+06
1.23779e+07
2617.39
7010.48
10878.8
14193.3
16978.1
19262.1
21075.1
22487.9
23573.9
24400.3
25024.6
25493.7
25844.9
26107.3
26303.2
26449.5
26559.2
26642.5
26706.8
26758.5
26802.6
26843.8
26886.3
26934.8
26994.4
27071.7
27174.7
27314.1
27504.1
27763.7
28118.9
28605
29270.4
30181.6
31431.4
33149.4
35519.2
38805
43395.6
49884.2
59243.4
72812.8
93246.5
125344
178958
277035
482973
1.02053e+06
3.04091e+06
1.79872e+07
3027.8
8269.3
12873.6
16773.5
19994.4
22555.2
24534.5
26037.4
27163.9
28000.8
28619
29074.1
29408.4
29653.9
29834.3
29967.3
30065.8
30139.6
30196.1
30241
30279.1
30314.3
30350.6
30392.1
30443.2
30509.6
30598.5
30719.4
30885
31112.8
31426.4
31858.7
32455.3
33279.9
34422.3
36010.1
38226.8
41340
45747.7
52056.9
61219.9
74749.5
95339.1
127995
182993
284211
497135
1.04964e+06
3.09629e+06
1.79872e+07
3626.74
10062.8
15672
20351.1
24097.5
26978.5
29138.2
30728.7
31886.5
32723.2
33325.7
33758.8
34070.3
34294.8
34456.9
34574.6
34660.6
34724.2
34772.4
34810.3
34842.2
34871.5
34901.6
34936
34978.5
35033.9
35108.4
35210.2
35350.4
35544.4
35813.4
36187
36707.2
37433.4
38450.5
39881.4
41905.5
44788.7
48930.4
54944
63795.9
77063.8
97495
130193
185568
287644
501922
1.05568e+06
3.1015e+06
1.79872e+07
4511.49
12653.5
19647.7
25336.6
29719.1
32966.1
35311.5
36978.1
38150.6
38971.6
39545.8
39948
40230.5
40429.7
40571
40671.9
40744.5
40797.5
40837.2
40868.2
40893.9
40917.5
40941.6
40969.1
41003.3
41047.9
41108.2
41191
41305.6
41465.1
41687.9
42000
42438.4
43056.9
43933.5
45183.1
46976.8
49571.8
53361.7
58958.3
67337.1
80106
100053
132340
187433
289367
503537
1.05696e+06
3.10205e+06
1.79872e+07
5842.63
16465.7
25383
32374
37521
41166.6
43686.6
45403.6
46565.4
47350.2
47881.5
48242.9
48490.3
48660.8
48779.3
48862.4
48921.3
48963.8
48995.1
49019.3
49039.3
49057.5
49076
49097.2
49123.5
49158.1
49204.9
49269.5
49359.4
49485.3
49662.3
49912.3
50267
50772.8
51498.8
52548.6
54079.4
56333.3
59687.6
64740.8
72463
84472.9
103590
135032
189341
290617
504275
1.05731e+06
3.10213e+06
1.79872e+07
7900.91
22223
33862.9
42507.9
48539.2
52587.5
55244.2
56968.3
58083.9
58807.6
59280.1
59591.4
59798.5
59937.8
60032.6
60097.8
60143.3
60175.7
60199.3
60217.3
60232
60245.4
60259
60274.5
60293.9
60319.3
60354
60401.9
60469.1
60563.6
60697.4
60888
61160.9
61554.5
62127
62967.3
64214
66085.3
68930.3
73317.4
80189.3
91151.8
109039
139132
192092
292182
504969
1.05751e+06
3.10215e+06
1.79872e+07
11209.2
31214
46693.7
57449.4
64460.8
68866.7
71584.8
73251.7
74276.7
74912.2
75310.9
75564.5
75728.3
75835.6
75907
75955.2
75988.2
76011.4
76028.1
76040.7
76051
76060.3
76069.7
76080.5
76093.9
76111.6
76135.8
76169.4
76216.6
76283.5
76378.7
76515.3
76712.9
77001
77425.7
78059
79015.9
80482.4
82766
86382.6
92216.3
101819
117998
146077
196869
294921
506147
1.05782e+06
3.10219e+06
1.79872e+07
16826.5
45904.4
66847.6
80199.8
88191
92824.6
95480.8
97006.4
97891.7
98413.6
98727.1
98919.3
99039.5
99116.1
99165.9
99198.9
99221.2
99236.5
99247.5
99255.7
99262.4
99268.4
99274.5
99281.5
99290.2
99301.7
99317.4
99339.4
99370.2
99414.1
99477
99567.9
99700.4
99895.8
100188
100630
101310
102377
104082
106863
111505
119439
133361
158544
205921
300435
508668
1.05852e+06
3.10227e+06
1.79872e+07
27112.2
71372.9
100004
116320
125090
129700
132121
133411
134111
134502
134726
134858
134938
134988
135019
135040
135053
135062
135069
135074
135078
135081
135085
135089
135094
135101
135111
135124
135142
135169
135206
135261
135342
135462
135644
135924
136362
137065
138220
140166
143539
149566
160679
181889
224030
312398
514673
1.06036e+06
3.10248e+06
1.79872e+07
47930.6
118611
157775
176994
186002
190198
192185
193153
193642
193899
194040
194119
194165
194193
194211
194222
194229
194234
194238
194240
194242
194244
194246
194248
194251
194255
194260
194267
194277
194291
194311
194340
194384
194449
194548
194703
194951
195356
196041
197234
199389
203433
211343
227493
262030
340009
530311
1.06585e+06
3.1032e+06
1.79872e+07
96123.9
214082
266524
287538
295789
299094
300476
301084
301367
301507
301579
301619
301641
301654
301662
301667
301671
301673
301674
301676
301677
301678
301679
301680
301681
301683
301685
301688
301693
301699
301709
301722
301742
301771
301817
301889
302005
302199
302535
303140
304279
306533
311242
321669
346212
407822
574733
1.08478e+06
3.10622e+06
1.79872e+07
228623
431013
496278
516083
522235
524269
525000
525287
525410
525466
525494
525509
525517
525522
525525
525527
525528
525529
525529
525530
525530
525531
525531
525532
525532
525533
525534
525535
525537
525540
525543
525548
525555
525566
525582
525607
525649
525720
525844
526075
526525
527464
529564
534663
548178
587436
712735
1.16002e+06
3.12319e+06
1.79872e+07
679429
1.01714e+06
1.08474e+06
1.09848e+06
1.10156e+06
1.10235e+06
1.10259e+06
1.10267e+06
1.1027e+06
1.10272e+06
1.10272e+06
1.10273e+06
1.10273e+06
1.10273e+06
1.10273e+06
1.10273e+06
1.10273e+06
1.10273e+06
1.10273e+06
1.10273e+06
1.10273e+06
1.10273e+06
1.10273e+06
1.10273e+06
1.10273e+06
1.10273e+06
1.10273e+06
1.10273e+06
1.10274e+06
1.10274e+06
1.10274e+06
1.10274e+06
1.10274e+06
1.10274e+06
1.10275e+06
1.10275e+06
1.10276e+06
1.10278e+06
1.10281e+06
1.10287e+06
1.10298e+06
1.10322e+06
1.10379e+06
1.10531e+06
1.1099e+06
1.12603e+06
1.19192e+06
1.50335e+06
3.24976e+06
1.79872e+07
2.70014e+06
3.18574e+06
3.23008e+06
3.23475e+06
3.23538e+06
3.23549e+06
3.23552e+06
3.23553e+06
3.23554e+06
3.23554e+06
3.23554e+06
3.23554e+06
3.23554e+06
3.23554e+06
3.23554e+06
3.23554e+06
3.23554e+06
3.23554e+06
3.23554e+06
3.23554e+06
3.23554e+06
3.23554e+06
3.23554e+06
3.23554e+06
3.23554e+06
3.23554e+06
3.23555e+06
3.23555e+06
3.23555e+06
3.23555e+06
3.23555e+06
3.23555e+06
3.23555e+06
3.23555e+06
3.23555e+06
3.23556e+06
3.23556e+06
3.23556e+06
3.23557e+06
3.23557e+06
3.23559e+06
3.23561e+06
3.23568e+06
3.23586e+06
3.23644e+06
3.23892e+06
3.25306e+06
3.36211e+06
4.43128e+06
1.79872e+07
1.87595e+07
1.87595e+07
1.87595e+07
1.87595e+07
1.87595e+07
1.87595e+07
1.87595e+07
1.87595e+07
1.87595e+07
1.87595e+07
1.87595e+07
1.87595e+07
1.87595e+07
1.87595e+07
1.87595e+07
1.87595e+07
1.87595e+07
1.87595e+07
1.87595e+07
1.87595e+07
1.87595e+07
1.87595e+07
1.87595e+07
1.87595e+07
1.87595e+07
1.87595e+07
1.87595e+07
1.87595e+07
1.87595e+07
1.87595e+07
1.87595e+07
1.87595e+07
1.87595e+07
1.87595e+07
1.87595e+07
1.87595e+07
1.87595e+07
1.87595e+07
1.87595e+07
1.87595e+07
1.87595e+07
1.87595e+07
1.87595e+07
1.87595e+07
1.87595e+07
1.87595e+07
1.87595e+07
1.87595e+07
1.87595e+07
1.87595e+07
6.64477e+07
6.7618e+07
6.78184e+07
6.72141e+07
6.76946e+07
6.71689e+07
6.70519e+07
6.84531e+07
6.75373e+07
6.76647e+07
6.76656e+07
6.76813e+07
6.76906e+07
6.54811e+07
6.8099e+07
6.76643e+07
6.76662e+07
6.76661e+07
6.7666e+07
6.7664e+07
3.10202e+06
3.2787e+06
3.25793e+06
3.24724e+06
3.26012e+06
3.26129e+06
3.29972e+06
3.29368e+06
3.32145e+06
3.32431e+06
3.32278e+06
3.3201e+06
3.28495e+06
3.26603e+06
3.2646e+06
3.32053e+06
3.3245e+06
3.3245e+06
3.32231e+06
3.25288e+06
1.15716e+07
1.18393e+07
1.20684e+07
1.23399e+07
1.18272e+07
1.18351e+07
1.19064e+07
1.17511e+07
1.19555e+07
1.19512e+07
1.19495e+07
1.20037e+07
1.18092e+07
1.20695e+07
1.20709e+07
1.19508e+07
1.19513e+07
1.19517e+07
1.19513e+07
1.19096e+07
1.87595e+07
1.87595e+07
1.87595e+07
1.87595e+07
1.87595e+07
1.87595e+07
1.87595e+07
1.87595e+07
1.87595e+07
1.87595e+07
1.87595e+07
1.87595e+07
1.87595e+07
1.87595e+07
1.87595e+07
1.87595e+07
1.87595e+07
1.87595e+07
1.87595e+07
1.87595e+07
1.87595e+07
1.87595e+07
1.87595e+07
1.87595e+07
1.87595e+07
1.87595e+07
1.87595e+07
1.87595e+07
1.87595e+07
1.87595e+07
1.87595e+07
1.87595e+07
1.87595e+07
1.87595e+07
1.87595e+07
1.87595e+07
1.87595e+07
1.87595e+07
1.87595e+07
1.87595e+07
1.87595e+07
1.87595e+07
1.87595e+07
1.87595e+07
1.87595e+07
1.87595e+07
1.87595e+07
1.87595e+07
1.87595e+07
1.87595e+07
1.87595e+07
1.87595e+07
1.87595e+07
1.87595e+07
1.87595e+07
1.87595e+07
1.87595e+07
1.87595e+07
1.87595e+07
1.87595e+07
1.87595e+07
1.87595e+07
1.87595e+07
1.87595e+07
1.87595e+07
1.87595e+07
1.87595e+07
1.87595e+07
1.87595e+07
1.87595e+07
1.87595e+07
1.87595e+07
1.87595e+07
1.87595e+07
1.87595e+07
1.87595e+07
1.87595e+07
1.87595e+07
1.87595e+07
1.87595e+07
1.87595e+07
1.87595e+07
1.87595e+07
1.87595e+07
1.87595e+07
1.87595e+07
1.87595e+07
1.87595e+07
1.87595e+07
1.87595e+07
1.87595e+07
1.87595e+07
1.87595e+07
1.87595e+07
1.87595e+07
1.87595e+07
1.87595e+07
1.87595e+07
1.87595e+07
1.87595e+07
1.79872e+07
4.43128e+06
3.36208e+06
3.25302e+06
3.23888e+06
3.2364e+06
3.23582e+06
3.23564e+06
3.23558e+06
3.23556e+06
3.23555e+06
3.23554e+06
3.23554e+06
3.23554e+06
3.23554e+06
3.23554e+06
3.23554e+06
3.23554e+06
3.23554e+06
3.23554e+06
3.23554e+06
3.23554e+06
3.23554e+06
3.23554e+06
3.23554e+06
3.23554e+06
3.23554e+06
3.23554e+06
3.23554e+06
3.23554e+06
3.23554e+06
3.23554e+06
3.23554e+06
3.23554e+06
3.23554e+06
3.23554e+06
3.23554e+06
3.23554e+06
3.23554e+06
3.23554e+06
3.23554e+06
3.23554e+06
3.23554e+06
3.23554e+06
3.23554e+06
3.23554e+06
3.23554e+06
3.23554e+06
3.23554e+06
3.23554e+06
3.23554e+06
3.23554e+06
3.23554e+06
3.23554e+06
3.23554e+06
3.23554e+06
3.23554e+06
3.23554e+06
3.23554e+06
3.23554e+06
3.23554e+06
3.23554e+06
3.23554e+06
3.23554e+06
3.23554e+06
3.23554e+06
3.23554e+06
3.23554e+06
3.23554e+06
3.23554e+06
3.23554e+06
3.23554e+06
3.23554e+06
3.23554e+06
3.23554e+06
3.23554e+06
3.23554e+06
3.23554e+06
3.23554e+06
3.23554e+06
3.23554e+06
3.23554e+06
3.23554e+06
3.23554e+06
3.23554e+06
3.23554e+06
3.23554e+06
3.23554e+06
3.23554e+06
3.23554e+06
3.23554e+06
3.23554e+06
3.23554e+06
3.23554e+06
3.23554e+06
3.23554e+06
3.23554e+06
3.23554e+06
3.23554e+06
3.23554e+06
1.79872e+07
3.24979e+06
1.50335e+06
1.1919e+06
1.12601e+06
1.10988e+06
1.10528e+06
1.10377e+06
1.1032e+06
1.10296e+06
1.10285e+06
1.10279e+06
1.10277e+06
1.10275e+06
1.10274e+06
1.10274e+06
1.10273e+06
1.10273e+06
1.10273e+06
1.10273e+06
1.10273e+06
1.10273e+06
1.10273e+06
1.10273e+06
1.10273e+06
1.10273e+06
1.10273e+06
1.10273e+06
1.10273e+06
1.10273e+06
1.10273e+06
1.10273e+06
1.10273e+06
1.10273e+06
1.10273e+06
1.10273e+06
1.10273e+06
1.10273e+06
1.10273e+06
1.10273e+06
1.10273e+06
1.10273e+06
1.10273e+06
1.10273e+06
1.10273e+06
1.10273e+06
1.10273e+06
1.10273e+06
1.10273e+06
1.10273e+06
1.10273e+06
1.10273e+06
1.10273e+06
1.10273e+06
1.10273e+06
1.10273e+06
1.10273e+06
1.10273e+06
1.10273e+06
1.10273e+06
1.10273e+06
1.10273e+06
1.10273e+06
1.10273e+06
1.10273e+06
1.10273e+06
1.10273e+06
1.10273e+06
1.10273e+06
1.10273e+06
1.10273e+06
1.10273e+06
1.10273e+06
1.10273e+06
1.10273e+06
1.10273e+06
1.10273e+06
1.10273e+06
1.10273e+06
1.10273e+06
1.10273e+06
1.10273e+06
1.10273e+06
1.10273e+06
1.10273e+06
1.10273e+06
1.10273e+06
1.10273e+06
1.10273e+06
1.10273e+06
1.10273e+06
1.10273e+06
1.10273e+06
1.10273e+06
1.10273e+06
1.10273e+06
1.10273e+06
1.10273e+06
1.10273e+06
1.10273e+06
1.79872e+07
3.12324e+06
1.16003e+06
712735
587426
548162
534645
529546
527445
526508
526059
525830
525707
525638
525598
525573
525559
525549
525543
525539
525537
525535
525534
525533
525532
525532
525532
525531
525531
525531
525531
525531
525531
525531
525531
525531
525531
525531
525530
525530
525530
525530
525530
525530
525530
525530
525530
525530
525530
525530
525530
525530
525530
525529
525529
525529
525529
525529
525529
525529
525529
525529
525529
525529
525529
525529
525529
525529
525529
525529
525529
525529
525529
525529
525529
525529
525529
525529
525529
525529
525529
525529
525529
525529
525529
525529
525529
525529
525529
525529
525529
525529
525529
525529
525529
525529
525529
525529
525529
525529
1.79872e+07
3.10627e+06
1.0848e+06
574745
407824
346206
321658
311228
306519
304266
303128
302525
302191
301999
301885
301816
301772
301744
301726
301713
301705
301699
301695
301692
301690
301688
301686
301685
301684
301683
301683
301682
301681
301681
301681
301681
301680
301680
301680
301680
301680
301680
301679
301679
301679
301679
301679
301678
301678
301678
301678
301677
301677
301677
301677
301677
301677
301676
301676
301676
301676
301676
301676
301676
301676
301676
301676
301676
301676
301676
301676
301676
301676
301676
301676
301676
301676
301676
301676
301676
301676
301676
301676
301676
301676
301676
301676
301676
301676
301676
301676
301676
301676
301676
301676
301676
301677
301677
301677
301677
1.79872e+07
3.10325e+06
1.06588e+06
530332
340020
262034
227491
211338
203428
199384
197231
196041
195360
194958
194714
194562
194466
194403
194362
194333
194314
194300
194290
194283
194277
194272
194268
194265
194262
194260
194258
194256
194255
194254
194253
194252
194252
194251
194251
194250
194250
194250
194250
194249
194249
194248
194248
194247
194247
194246
194246
194245
194245
194245
194244
194244
194244
194243
194243
194243
194243
194243
194243
194243
194243
194243
194243
194243
194243
194243
194243
194243
194243
194243
194243
194243
194243
194243
194243
194243
194243
194243
194243
194243
194243
194243
194243
194243
194243
194243
194243
194243
194243
194243
194243
194243
194243
194244
194244
194244
1.79872e+07
3.10254e+06
1.06039e+06
514700
312418
224044
181898
160684
149572
143548
140178
138237
137089
136392
135960
135686
135509
135392
135314
135261
135223
135196
135176
135161
135149
135139
135131
135124
135118
135113
135109
135106
135103
135101
135099
135097
135096
135095
135094
135093
135093
135092
135091
135091
135090
135089
135089
135088
135087
135086
135085
135084
135083
135083
135082
135082
135081
135081
135080
135080
135080
135080
135080
135080
135080
135080
135080
135080
135080
135080
135080
135080
135080
135080
135080
135080
135080
135080
135080
135080
135080
135080
135080
135080
135080
135080
135080
135080
135080
135080
135080
135080
135080
135080
135080
135081
135081
135081
135081
135081
1.79872e+07
3.10232e+06
1.05856e+06
508699
300462
205944
158564
133381
119461
111533
106899
104128
102434
101378
100708
100275
99991.5
99802.1
99673.5
99584.3
99521
99474.8
99439.9
99412.7
99390.9
99372.9
99357.8
99345.1
99334.2
99325.1
99317.4
99311
99305.7
99301.4
99297.9
99295.1
99292.8
99291
99289.5
99288.2
99287.1
99286
99285
99283.9
99282.7
99281.5
99280.2
99278.8
99277.4
99276
99274.6
99273.3
99272.1
99271
99270.1
99269.3
99268.6
99268
99267.6
99267.2
99267
99266.8
99266.6
99266.5
99266.4
99266.4
99266.3
99266.3
99266.3
99266.3
99266.3
99266.3
99266.3
99266.3
99266.3
99266.3
99266.3
99266.3
99266.3
99266.3
99266.3
99266.3
99266.3
99266.3
99266.4
99266.4
99266.4
99266.5
99266.5
99266.6
99266.7
99266.9
99267
99267.2
99267.4
99267.7
99267.9
99268.1
99268.3
99268.4
1.79872e+07
3.10225e+06
1.05786e+06
506182
294954
196900
146108