/*--------------------------------*- C++ -*----------------------------------*\
| =========                 |                                                 |
| \\      /  F ield         | foam-extend: Open Source CFD                    |
|  \\    /   O peration     | Version:     4.0                                |
|   \\  /    A nd           | Web:         http://www.foam-extend.org         |
|    \\/     M anipulation  |                                                 |
\*---------------------------------------------------------------------------*/
FoamFile
{
    version     2.0;
    format      ascii;
    class       surfaceScalarField;
    location    "0.0007";
    object      phi;
}
// * * * * * * * * * * * * * * * * * * * * * * * * * * * * * * * * * * * * * //

dimensions      [0 3 -1 0 0 0 0];

internalField   nonuniform List<scalar> 
57362
(
4.68212e-11
2.78022e-15
4.68128e-11
8.38312e-15
4.67987e-11
1.4114e-14
4.67786e-11
2.00601e-14
4.67523e-11
2.6312e-14
4.67193e-11
3.29641e-14
4.66792e-11
4.01167e-14
4.66313e-11
4.78769e-14
4.6575e-11
5.63602e-14
4.65093e-11
6.56919e-14
4.64332e-11
7.60082e-14
4.63458e-11
8.74587e-14
4.62456e-11
1.00207e-13
4.61311e-11
1.14433e-13
4.60008e-11
1.30335e-13
4.58526e-11
1.48131e-13
4.56846e-11
1.68058e-13
4.54942e-11
1.90378e-13
4.52788e-11
2.15378e-13
4.50354e-11
2.43367e-13
4.47607e-11
2.74682e-13
4.4451e-11
3.09684e-13
4.41022e-11
3.48764e-13
4.37098e-11
3.92324e-13
4.3269e-11
4.40806e-13
4.27743e-11
4.94632e-13
4.222e-11
5.5429e-13
4.15997e-11
6.20165e-13
4.09069e-11
6.9279e-13
4.01344e-11
7.72402e-13
3.92749e-11
8.59594e-13
3.83204e-11
9.54253e-13
3.72634e-11
1.05708e-12
3.60959e-11
1.16732e-12
3.48102e-11
1.28584e-12
3.3399e-11
1.41086e-12
3.18557e-11
1.54345e-12
3.01748e-11
1.68056e-12
2.83518e-11
1.82322e-12
2.63842e-11
1.96722e-12
2.42714e-11
2.11305e-12
2.20153e-11
2.25585e-12
1.96204e-11
2.39502e-12
1.70946e-11
2.52574e-12
1.44484e-11
2.64631e-12
1.16959e-11
2.75244e-12
8.85414e-12
2.84194e-12
5.94268e-12
2.91151e-12
2.98349e-12
2.95933e-12
2.9836e-12
4.68218e-11
5.51918e-15
4.68135e-11
1.66419e-14
4.67996e-11
2.80187e-14
4.67799e-11
3.98232e-14
4.67539e-11
5.22349e-14
4.67215e-11
6.54417e-14
4.66819e-11
7.96428e-14
4.66348e-11
9.50512e-14
4.65792e-11
1.11896e-13
4.65145e-11
1.30427e-13
4.64396e-11
1.50915e-13
4.63533e-11
1.73657e-13
4.62546e-11
1.98979e-13
4.61418e-11
2.27239e-13
4.60132e-11
2.58832e-13
4.58672e-11
2.94192e-13
4.57014e-11
3.33793e-13
4.55136e-11
3.78157e-13
4.53011e-11
4.27856e-13
4.5061e-11
4.83508e-13
4.47898e-11
5.45789e-13
4.44841e-11
6.1542e-13
4.41396e-11
6.93184e-13
4.3752e-11
7.79891e-13
4.33164e-11
8.76429e-13
4.28273e-11
9.83648e-13
4.22791e-11
1.10254e-12
4.16653e-11
1.23388e-12
4.09793e-11
1.37876e-12
4.0214e-11
1.53765e-12
3.93618e-11
1.71181e-12
3.8415e-11
1.90097e-12
3.73655e-11
2.10669e-12
3.62054e-11
2.32729e-12
3.49267e-11
2.56483e-12
3.35219e-11
2.81544e-12
3.1984e-11
3.08175e-12
3.03072e-11
3.35709e-12
2.84867e-11
3.64429e-12
2.65197e-11
3.93404e-12
2.44051e-11
4.22826e-12
2.21446e-11
4.51625e-12
1.97426e-11
4.79756e-12
1.72066e-11
5.0618e-12
1.45474e-11
5.30594e-12
1.1779e-11
5.52092e-12
8.91892e-12
5.7024e-12
5.98707e-12
5.84355e-12
3.00606e-12
5.94064e-12
5.98991e-12
4.68373e-11
8.177e-15
4.68293e-11
2.46561e-14
4.68158e-11
4.15121e-14
4.67966e-11
5.90023e-14
4.67715e-11
7.73929e-14
4.67399e-11
9.69629e-14
4.67016e-11
1.18008e-13
4.66558e-11
1.40844e-13
4.66019e-11
1.65811e-13
4.6539e-11
1.9328e-13
4.64663e-11
2.23654e-13
4.63825e-11
2.57375e-13
4.62866e-11
2.94926e-13
4.6177e-11
3.36843e-13
4.60521e-11
3.83712e-13
4.59101e-11
4.36179e-13
4.57489e-11
4.94955e-13
4.55662e-11
5.60818e-13
4.53594e-11
6.34622e-13
4.51256e-11
7.17296e-13
4.48615e-11
8.09851e-13
4.45636e-11
9.13372e-13
4.42277e-11
1.02904e-12
4.38495e-11
1.15807e-12
4.3424e-11
1.30182e-12
4.29461e-11
1.46157e-12
4.24097e-11
1.63884e-12
4.18087e-11
1.83481e-12
4.11363e-11
2.05119e-12
4.03851e-11
2.28869e-12
3.95476e-11
2.54933e-12
3.86156e-11
2.83265e-12
3.75811e-11
3.14126e-12
3.64355e-11
3.47247e-12
3.51706e-11
3.82985e-12
3.37783e-11
4.20716e-12
3.2251e-11
4.60911e-12
3.05824e-11
5.025e-12
2.87667e-11
5.45999e-12
2.68007e-11
5.89932e-12
2.46823e-11
6.34658e-12
2.24128e-11
6.78503e-12
1.9996e-11
7.21431e-12
1.74391e-11
7.61819e-12
1.47529e-11
7.99206e-12
1.19517e-11
8.32178e-12
9.05352e-12
8.60054e-12
6.07934e-12
8.81757e-12
3.05299e-12
8.96699e-12
9.04285e-12
4.68532e-11
1.07141e-14
4.68456e-11
3.23063e-14
4.68327e-11
5.43931e-14
4.68144e-11
7.7312e-14
4.67904e-11
1.01412e-13
4.67603e-11
1.2706e-13
4.67236e-11
1.54644e-13
4.66799e-11
1.84579e-13
4.66284e-11
2.17312e-13
4.65683e-11
2.53331e-13
4.64988e-11
2.93165e-13
4.64188e-11
3.37396e-13
4.6327e-11
3.86664e-13
4.62222e-11
4.41672e-13
4.61027e-11
5.03195e-13
4.59668e-11
5.72087e-13
4.58124e-11
6.49288e-13
4.56374e-11
7.3583e-13
4.54392e-11
8.32848e-13
4.52149e-11
9.41574e-13
4.49613e-11
1.06336e-12
4.4675e-11
1.19965e-12
4.4352e-11
1.35203e-12
4.39879e-11
1.52215e-12
4.35779e-11
1.71181e-12
4.31166e-11
1.92277e-12
4.25984e-11
2.15712e-12
4.20167e-11
2.41643e-12
4.13648e-11
2.70315e-12
4.06352e-11
3.01819e-12
3.98201e-11
3.36456e-12
3.89111e-11
3.74147e-12
3.78997e-11
4.15306e-12
3.67768e-11
4.59514e-12
3.55335e-11
5.07383e-12
3.4161e-11
5.57933e-12
3.26507e-11
6.12046e-12
3.09953e-11
6.68e-12
2.91878e-11
7.26883e-12
2.72241e-11
7.86279e-12
2.51007e-11
8.4714e-12
2.28182e-11
9.06755e-12
2.03795e-11
9.65428e-12
1.77914e-11
1.02066e-11
1.50647e-11
1.07198e-11
1.2214e-11
1.11729e-11
9.25822e-12
1.1557e-11
6.21977e-12
1.18565e-11
3.12444e-12
1.20629e-11
1.21678e-11
4.68693e-11
1.30925e-14
4.68621e-11
3.94784e-14
4.68501e-11
6.64696e-14
4.68329e-11
9.44793e-14
4.68104e-11
1.23935e-13
4.67821e-11
1.55286e-13
4.67478e-11
1.89008e-13
4.67067e-11
2.25609e-13
4.66584e-11
2.65638e-13
4.6602e-11
3.09693e-13
4.65368e-11
3.58426e-13
4.64616e-11
4.12551e-13
4.63754e-11
4.72856e-13
4.62769e-11
5.40207e-13
4.61645e-11
6.15561e-13
4.60366e-11
6.99971e-13
4.58913e-11
7.94603e-13
4.57263e-11
9.00735e-13
4.55394e-11
1.01978e-12
4.53277e-11
1.15326e-12
4.50882e-11
1.30288e-12
4.48173e-11
1.47044e-12
4.45114e-11
1.65794e-12
4.41661e-11
1.86744e-12
4.37766e-11
2.10126e-12
4.33377e-11
2.36162e-12
4.28436e-11
2.65121e-12
4.22878e-11
2.97207e-12
4.16635e-11
3.32743e-12
4.0963e-11
3.71845e-12
4.01783e-11
4.14931e-12
3.93004e-11
4.61884e-12
3.83205e-11
5.13309e-12
3.72286e-11
5.68619e-12
3.60152e-11
6.28739e-12
3.46704e-11
6.92301e-12
3.31842e-11
7.60667e-12
3.15483e-11
8.3144e-12
2.97538e-11
9.06311e-12
2.77954e-11
9.81959e-12
2.56677e-11
1.05986e-11
2.33699e-11
1.13638e-11
2.09034e-11
1.21201e-11
1.82744e-11
1.28343e-11
1.54934e-11
1.35002e-11
1.25754e-11
1.409e-11
9.54088e-12
1.45912e-11
6.41396e-12
1.49828e-11
3.22333e-12
1.52533e-11
1.53908e-11
4.68996e-11
1.52774e-14
4.6893e-11
4.60668e-14
4.68819e-11
7.7564e-14
4.68661e-11
1.10252e-13
4.68454e-11
1.44631e-13
4.68195e-11
1.81227e-13
4.67879e-11
2.20595e-13
4.67502e-11
2.63333e-13
4.67057e-11
3.10084e-13
4.66539e-11
3.61547e-13
4.65938e-11
4.1849e-13
4.65246e-11
4.81752e-13
4.64452e-11
5.5226e-13
4.63543e-11
6.31034e-13
4.62507e-11
7.19204e-13
4.61326e-11
8.18016e-13
4.59984e-11
9.28848e-13
4.58459e-11
1.05322e-12
4.56728e-11
1.19281e-12
4.54766e-11
1.34944e-12
4.52543e-11
1.52515e-12
4.50027e-11
1.72209e-12
4.47179e-11
1.94269e-12
4.43959e-11
2.18944e-12
4.40319e-11
2.46519e-12
4.36209e-11
2.77262e-12
4.3157e-11
3.11513e-12
4.26338e-11
3.49519e-12
4.20444e-11
3.91702e-12
4.13807e-11
4.38193e-12
4.06348e-11
4.89569e-12
3.97968e-11
5.45644e-12
3.88577e-11
6.0731e-12
3.78063e-11
6.73702e-12
3.66323e-11
7.46301e-12
3.53242e-11
8.23034e-12
3.38705e-11
9.06286e-12
3.22613e-11
9.92269e-12
3.04847e-11
1.08429e-11
2.85347e-11
1.1769e-11
2.64019e-11
1.27348e-11
2.4085e-11
1.36808e-11
2.15836e-11
1.46245e-11
1.89023e-11
1.55162e-11
1.60519e-11
1.6353e-11
1.3047e-11
1.70957e-11
9.91027e-12
1.77296e-11
6.668e-12
1.8226e-11
3.35281e-12
1.85696e-11
1.87446e-11
4.69293e-11
1.72355e-14
4.69234e-11
5.19719e-14
4.69135e-11
8.75085e-14
4.68993e-11
1.24392e-13
4.68808e-11
1.63188e-13
4.68575e-11
2.04491e-13
4.68292e-11
2.48931e-13
4.67953e-11
2.97183e-13
4.67554e-11
3.49979e-13
4.67089e-11
4.08113e-13
4.66549e-11
4.72456e-13
4.65927e-11
5.43962e-13
4.65212e-11
6.23687e-13
4.64395e-11
7.12797e-13
4.63461e-11
8.12582e-13
4.62396e-11
9.24469e-13
4.61184e-11
1.05004e-12
4.59806e-11
1.19104e-12
4.5824e-11
1.34941e-12
4.56461e-11
1.52726e-12
4.54443e-11
1.72695e-12
4.52154e-11
1.951e-12
4.49558e-11
2.20225e-12
4.46615e-11
2.48364e-12
4.43282e-11
2.79855e-12
4.39505e-11
3.15017e-12
4.3523e-11
3.54263e-12
4.3039e-11
3.97891e-12
4.24918e-11
4.46428e-12
4.18729e-11
5.0003e-12
4.11743e-11
5.59452e-12
4.03854e-11
6.24444e-12
3.94965e-11
6.9622e-12
3.84955e-11
7.73647e-12
3.73709e-11
8.58791e-12
3.61097e-11
9.48929e-12
3.46983e-11
1.04742e-11
3.31252e-11
1.1493e-11
3.13755e-11
1.25919e-11
2.94406e-11
1.37007e-11
2.73086e-11
1.48653e-11
2.49742e-11
1.60118e-11
2.24347e-11
1.71623e-11
1.96926e-11
1.82553e-11
1.67579e-11
1.92861e-11
1.36458e-11
2.02056e-11
1.03806e-11
2.09936e-11
6.99227e-12
2.16129e-11
3.5183e-12
2.20427e-11
2.22619e-11
4.69581e-11
1.89371e-14
4.6953e-11
5.71038e-14
4.69443e-11
9.61517e-14
4.6932e-11
1.36683e-13
4.69159e-11
1.79322e-13
4.68957e-11
2.24723e-13
4.6871e-11
2.73582e-13
4.68415e-11
3.26645e-13
4.68068e-11
3.84719e-13
4.67662e-11
4.48683e-13
4.67192e-11
5.19501e-13
4.66649e-11
5.98234e-13
4.66025e-11
6.86053e-13
4.65311e-11
7.84255e-13
4.64494e-11
8.94277e-13
4.63561e-11
1.01772e-12
4.62498e-11
1.15634e-12
4.61287e-11
1.31211e-12
4.59909e-11
1.48721e-12
4.58341e-11
1.68404e-12
4.56558e-11
1.90525e-12
4.5453e-11
2.15374e-12
4.52225e-11
2.43275e-12
4.49605e-11
2.74566e-12
4.46626e-11
3.09643e-12
4.43239e-11
3.48876e-12
4.39391e-11
3.92758e-12
4.35015e-11
4.41637e-12
4.30045e-11
4.96169e-12
4.24392e-11
5.56523e-12
4.17978e-11
6.23688e-12
4.10684e-11
6.973e-12
4.0242e-11
7.79059e-12
3.93037e-11
8.67343e-12
3.82422e-11
9.65294e-12
3.70411e-11
1.06882e-11
3.56854e-11
1.18355e-11
3.41611e-11
1.30148e-11
3.2447e-11
1.43134e-11
3.05361e-11
1.56097e-11
2.84057e-11
1.70035e-11
2.60522e-11
1.83654e-11
2.34692e-11
1.97519e-11
2.06556e-11
2.10703e-11
1.76216e-11
2.23249e-11
1.43803e-11
2.34489e-11
1.09595e-11
2.44177e-11
7.39217e-12
2.51822e-11
3.72273e-12
2.57145e-11
2.59866e-11
4.69998e-11
2.03567e-14
4.69955e-11
6.13851e-14
4.69883e-11
1.03363e-13
4.6978e-11
1.46941e-13
4.69645e-11
1.9279e-13
4.69476e-11
2.41619e-13
4.6927e-11
2.94177e-13
4.69024e-11
3.51271e-13
4.68734e-11
4.13775e-13
4.68394e-11
4.8264e-13
4.68e-11
5.58912e-13
4.67545e-11
6.43742e-13
4.67021e-11
7.38405e-13
4.66421e-11
8.44313e-13
4.65733e-11
9.63036e-13
4.64947e-11
1.09632e-12
4.64049e-11
1.24611e-12
4.63024e-11
1.41456e-12
4.61855e-11
1.60408e-12
4.60522e-11
1.81733e-12
4.59002e-11
2.05727e-12
4.57268e-11
2.32713e-12
4.55289e-11
2.63057e-12
4.53031e-11
2.97141e-12
4.50454e-11
3.35416e-12
4.47509e-11
3.78308e-12
4.44146e-11
4.26392e-12
4.40298e-11
4.80075e-12
4.35903e-11
5.40142e-12
4.30867e-11
6.068e-12
4.25112e-11
6.81271e-12
4.18514e-11
7.63122e-12
4.10974e-11
8.54514e-12
4.02335e-11
9.53473e-12
3.92463e-11
1.06406e-11
3.81186e-11
1.18121e-11
3.68312e-11
1.31225e-11
3.53691e-11
1.4472e-11
3.37063e-11
1.59741e-11
3.18316e-11
1.74788e-11
2.97201e-11
1.9111e-11
2.73577e-11
2.07213e-11
2.4734e-11
2.23711e-11
2.18435e-11
2.3955e-11
1.86935e-11
2.5471e-11
1.52976e-11
2.68403e-11
1.16854e-11
2.80271e-11
7.89543e-12
2.89692e-11
3.98042e-12
2.96275e-11
2.9965e-11
4.70394e-11
2.14719e-14
4.7036e-11
6.47489e-14
4.70304e-11
1.09031e-13
4.70223e-11
1.55004e-13
4.70117e-11
2.03382e-13
4.69984e-11
2.54912e-13
4.69822e-11
3.10391e-13
4.69628e-11
3.70674e-13
4.69399e-11
4.36688e-13
4.69131e-11
5.09446e-13
4.68819e-11
5.9006e-13
4.68459e-11
6.79758e-13
4.68044e-11
7.79901e-13
4.67567e-11
8.92001e-13
4.6702e-11
1.01774e-12
4.66393e-11
1.159e-12
4.65675e-11
1.31787e-12
4.64854e-11
1.49669e-12
4.63914e-11
1.69807e-12
4.62838e-11
1.9249e-12
4.61607e-11
2.18043e-12
4.60196e-11
2.46821e-12
4.58579e-11
2.79229e-12
4.56723e-11
3.15693e-12
4.54593e-11
3.5672e-12
4.52144e-11
4.02792e-12
4.49329e-11
4.54568e-12
4.46081e-11
5.12518e-12
4.42346e-11
5.7757e-12
4.38022e-11
6.49967e-12
4.33046e-11
7.31213e-12
4.27266e-11
8.20758e-12
4.20612e-11
9.21428e-12
4.12871e-11
1.03058e-11
4.03951e-11
1.15397e-11
3.93593e-11
1.28427e-11
3.81627e-11
1.43308e-11
3.67845e-11
1.58434e-11
3.51868e-11
1.75879e-11
3.33697e-11
1.92901e-11
3.12745e-11
2.12231e-11
2.88999e-11
2.30956e-11
2.62328e-11
2.50518e-11
2.32544e-11
2.69365e-11
1.9975e-11
2.87601e-11
1.63985e-11
3.04211e-11
1.25612e-11
3.18709e-11
8.50441e-12
3.30299e-11
4.29311e-12
3.38433e-11
3.42618e-11
4.70764e-11
2.22651e-14
4.7074e-11
6.71419e-14
4.707e-11
1.13064e-13
4.70642e-11
1.60745e-13
4.70567e-11
2.10928e-13
4.70472e-11
2.64391e-13
4.70356e-11
3.21964e-13
4.70218e-11
3.8454e-13
4.70054e-11
4.53087e-13
4.69862e-11
5.28663e-13
4.69638e-11
6.12433e-13
4.69378e-11
7.05686e-13
4.69079e-11
8.0985e-13
4.68734e-11
9.26517e-13
4.68336e-11
1.05746e-12
4.6788e-11
1.20468e-12
4.67354e-11
1.37038e-12
4.66751e-11
1.55705e-12
4.66057e-11
1.76749e-12
4.65257e-11
2.00479e-12
4.64337e-11
2.27245e-12
4.63276e-11
2.57434e-12
4.6205e-11
2.91484e-12
4.60632e-11
3.29864e-12
4.58991e-11
3.73135e-12
4.57084e-11
4.21837e-12
4.54871e-11
4.76709e-12
4.52287e-11
5.38297e-12
4.49282e-11
6.0766e-12
4.45754e-11
6.85117e-12
4.41641e-11
7.72414e-12
4.36791e-11
8.69008e-12
4.31121e-11
9.78231e-12
4.24423e-11
1.09714e-11
4.16562e-11
1.23267e-11
4.07301e-11
1.37628e-11
3.96381e-11
1.54219e-11
3.83623e-11
1.71118e-11
3.68567e-11
1.90885e-11
3.51142e-11
2.1024e-11
3.30856e-11
2.32422e-11
3.07358e-11
2.54334e-11
2.80427e-11
2.77347e-11
2.49829e-11
2.9985e-11
2.15569e-11
3.21774e-11
1.77709e-11
3.41982e-11
1.36591e-11
3.59764e-11
9.27228e-12
3.7411e-11
4.6883e-12
3.84231e-11
3.89462e-11
4.71246e-11
2.27236e-14
4.71232e-11
6.85257e-14
4.71209e-11
1.15398e-13
4.71175e-11
1.64071e-13
4.71132e-11
2.15306e-13
4.71076e-11
2.69901e-13
4.71009e-11
3.28707e-13
4.70928e-11
3.92641e-13
4.70832e-11
4.62699e-13
4.70719e-11
5.39969e-13
4.70587e-11
6.25652e-13
4.70433e-11
7.21079e-13
4.70254e-11
8.27727e-13
4.70046e-11
9.47248e-13
4.69806e-11
1.08149e-12
4.69528e-11
1.23251e-12
4.69205e-11
1.40264e-12
4.68831e-11
1.59449e-12
4.68396e-11
1.81097e-12
4.6789e-11
2.05539e-12
4.673e-11
2.33145e-12
4.6661e-11
2.64326e-12
4.65804e-11
2.99555e-12
4.64856e-11
3.39339e-12
4.63742e-11
3.84286e-12
4.62424e-11
4.34997e-12
4.60871e-11
4.92283e-12
4.59018e-11
5.56775e-12
4.56831e-11
6.29654e-12
4.54196e-11
7.11341e-12
4.51085e-11
8.03814e-12
4.473e-11
9.06571e-12
4.42834e-11
1.02352e-11
4.37359e-11
1.15129e-11
4.30894e-11
1.2986e-11
4.22969e-11
1.45441e-11
4.13517e-11
1.63898e-11
4.0215e-11
1.82317e-11
3.88227e-11
2.0514e-11
3.72177e-11
2.2613e-11
3.52252e-11
2.52692e-11
3.28722e-11
2.77871e-11
3.01592e-11
3.04731e-11
2.70088e-11
3.31433e-11
2.34329e-11
3.57707e-11
1.94072e-11
3.82332e-11
1.49785e-11
4.04169e-11
1.01989e-11
4.21983e-11
5.16718e-12
4.34625e-11
4.41199e-11
4.71688e-11
2.28394e-14
4.71685e-11
6.88759e-14
4.71679e-11
1.15991e-13
4.7167e-11
1.64923e-13
4.71659e-11
2.16438e-13
4.71645e-11
2.71342e-13
4.71627e-11
3.30497e-13
4.71605e-11
3.94827e-13
4.71578e-11
4.65343e-13
4.71547e-11
5.43147e-13
4.71509e-11
6.29459e-13
4.71463e-11
7.25632e-13
4.71409e-11
8.33172e-13
4.71343e-11
9.53763e-13
4.71265e-11
1.0893e-12
4.71171e-11
1.24189e-12
4.71058e-11
1.41394e-12
4.70922e-11
1.60812e-12
4.70757e-11
1.82749e-12
4.70556e-11
2.07546e-12
4.70311e-11
2.3559e-12
4.70012e-11
2.67316e-12
4.69646e-11
3.03221e-12
4.69193e-11
3.43849e-12
4.68638e-11
3.89848e-12
4.67947e-11
4.41877e-12
4.67097e-11
5.00808e-12
4.66029e-11
5.67372e-12
4.64717e-11
6.42838e-12
4.63054e-11
7.27792e-12
4.61012e-11
8.2435e-12
4.5841e-11
9.32247e-12
4.55212e-11
1.05568e-11
4.51138e-11
1.19144e-11
4.46101e-11
1.34914e-11
4.39753e-11
1.51703e-11
4.31797e-11
1.71845e-11
4.22024e-11
1.91987e-11
4.09581e-11
2.17492e-11
3.94801e-11
2.40805e-11
3.76734e-11
2.70554e-11
3.54382e-11
2.99989e-11
3.27428e-11
3.31475e-11
2.95304e-11
3.63344e-11
2.57834e-11
3.95005e-11
2.1487e-11
4.25127e-11
1.66695e-11
4.5222e-11
1.13966e-11
4.74608e-11
5.78833e-12
4.90636e-11
4.9902e-11
4.72085e-11
2.26096e-14
4.72092e-11
6.81841e-14
4.72103e-11
1.1483e-13
4.7212e-11
1.63279e-13
4.72141e-11
2.14295e-13
4.72168e-11
2.68678e-13
4.722e-11
3.27285e-13
4.72238e-11
3.91039e-13
4.72282e-11
4.60945e-13
4.72332e-11
5.38106e-13
4.72389e-11
6.23741e-13
4.72454e-11
7.19204e-13
4.72525e-11
8.26007e-13
4.72605e-11
9.45845e-13
4.72691e-11
1.08062e-12
4.72785e-11
1.23248e-12
4.72886e-11
1.40384e-12
4.72993e-11
1.59744e-12
4.73104e-11
1.81638e-12
4.73217e-11
2.06417e-12
4.73329e-11
2.34479e-12
4.73433e-11
2.66274e-12
4.73524e-11
3.02319e-12
4.73589e-11
3.43188e-12
4.7362e-11
3.89557e-12
4.73591e-11
4.42145e-12
4.73491e-11
5.01864e-12
4.73265e-11
5.69558e-12
4.72913e-11
6.46533e-12
4.72311e-11
7.3362e-12
4.71495e-11
8.32916e-12
4.70207e-11
9.44673e-12
4.68578e-11
1.0729e-11
4.66079e-11
1.2154e-11
4.63049e-11
1.38146e-11
4.58503e-11
1.56036e-11
4.52994e-11
1.77746e-11
4.45295e-11
1.99312e-11
4.34809e-11
2.28632e-11
4.23713e-11
2.51457e-11
4.05871e-11
2.89059e-11
3.82941e-11
3.23025e-11
3.56733e-11
3.58097e-11
3.24202e-11
3.96074e-11
2.85407e-11
4.34083e-11
2.39471e-11
4.71267e-11
1.86895e-11
5.04995e-11
1.28368e-11
5.33276e-11
6.53971e-12
5.53727e-11
5.64516e-11
4.72573e-11
2.20367e-14
4.72591e-11
6.64573e-14
4.7262e-11
1.11925e-13
4.72661e-11
1.59157e-13
4.72715e-11
2.08897e-13
4.72782e-11
2.61932e-13
4.72864e-11
3.191e-13
4.72962e-11
3.81306e-13
4.73076e-11
4.49537e-13
4.73208e-11
5.24877e-13
4.7336e-11
6.08525e-13
4.73534e-11
7.01818e-13
4.73732e-11
8.06248e-13
4.73955e-11
9.23492e-13
4.74207e-11
1.05544e-12
4.7449e-11
1.20422e-12
4.74806e-11
1.37225e-12
4.75157e-11
1.56227e-12
4.75547e-11
1.77739e-12
4.75977e-11
2.02115e-12
4.76449e-11
2.29758e-12
4.76964e-11
2.61127e-12
4.77521e-11
2.9675e-12
4.78116e-11
3.37222e-12
4.78749e-11
3.83239e-12
4.79403e-11
4.35568e-12
4.80079e-11
4.95144e-12
4.80732e-11
5.62927e-12
4.81371e-11
6.4023e-12
4.81897e-11
7.28147e-12
4.82336e-11
8.287e-12
4.82486e-11
9.42743e-12
4.82409e-11
1.07398e-11
4.81725e-11
1.22146e-11
4.80525e-11
1.3939e-11
4.78204e-11
1.58233e-11
4.74663e-11
1.81317e-11
4.69406e-11
2.04416e-11
4.60636e-11
2.37295e-11
4.50842e-11
2.61223e-11
4.3823e-11
1.65497e-11
1.35781e-11
4.19279e-11
1.55273e-11
1.8619e-11
3.93907e-11
1.76122e-11
2.06956e-11
3.61305e-11
1.99235e-11
2.29039e-11
3.20821e-11
2.23111e-11
2.51107e-11
2.71746e-11
2.47304e-11
2.72672e-11
2.13839e-11
2.7055e-11
2.92062e-11
1.47812e-11
2.91307e-11
3.07767e-11
7.55959e-12
3.07702e-11
3.18073e-11
3.18213e-11
3.21759e-11
4.72988e-11
2.11283e-14
4.73016e-11
6.37186e-14
4.73062e-11
1.07316e-13
4.73127e-11
1.5261e-13
4.73213e-11
2.00317e-13
4.7332e-11
2.51193e-13
4.73451e-11
3.06047e-13
4.73606e-11
3.65752e-13
4.73789e-11
4.31259e-13
4.74002e-11
5.03618e-13
4.74247e-11
5.83989e-13
4.74529e-11
6.73668e-13
4.7485e-11
7.74103e-13
4.75216e-11
8.86928e-13
4.7563e-11
1.01398e-12
4.76099e-11
1.15735e-12
4.76628e-11
1.31941e-12
4.77222e-11
1.50284e-12
4.77889e-11
1.71071e-12
4.78635e-11
1.94654e-12
4.79468e-11
2.21433e-12
4.80393e-11
2.51868e-12
4.81421e-11
2.86488e-12
4.82552e-11
3.259e-12
4.83798e-11
3.70803e-12
4.85152e-11
4.22004e-12
4.8663e-11
4.80434e-12
4.88197e-11
5.47173e-12
4.89892e-11
6.2347e-12
4.91607e-11
7.10767e-12
4.93449e-11
8.10752e-12
4.9513e-11
9.2535e-12
4.96956e-11
1.05685e-11
4.98184e-11
1.2078e-11
4.997e-11
1.38128e-11
4.99545e-11
1.58071e-11
5.00442e-11
1.80985e-11
4.96728e-11
2.0741e-11
4.9774e-11
2.37555e-11
2.4885e-11
2.72879e-11
2.35547e-11
-1.39178e-11
1.45217e-11
2.45864e-11
-2.30948e-11
2.26483e-11
1.59466e-11
-2.23731e-11
2.17995e-11
1.81988e-11
-2.12669e-11
2.05377e-11
2.06869e-11
-1.97629e-11
1.88026e-11
2.3314e-11
-1.77469e-11
1.65182e-11
2.60001e-11
-1.51616e-11
1.36632e-11
2.85832e-11
-1.20243e-11
1.02621e-11
3.09113e-11
-8.37207e-12
6.38227e-12
3.27708e-11
-4.3027e-12
2.16753e-12
3.39641e-11
4.73395e-11
1.98973e-14
4.73432e-11
6.0007e-14
4.73494e-11
1.01068e-13
4.73583e-11
1.4373e-13
4.737e-11
1.88673e-13
4.73846e-11
2.3661e-13
4.74023e-11
2.88307e-13
4.74235e-11
3.44589e-13
4.74484e-11
4.06361e-13
4.74774e-11
4.74616e-13
4.75109e-11
5.50458e-13
4.75495e-11
6.3512e-13
4.75936e-11
7.29984e-13
4.76439e-11
8.36608e-13
4.77011e-11
9.56754e-13
4.77661e-11
1.09242e-12
4.78396e-11
1.24589e-12
4.79227e-11
1.41976e-12
4.80164e-11
1.617e-12
4.81219e-11
1.84101e-12
4.82406e-11
2.0957e-12
4.83736e-11
2.38561e-12
4.85227e-11
2.71589e-12
4.86889e-11
3.09263e-12
4.88744e-11
3.52271e-12
4.90796e-11
4.01441e-12
4.93076e-11
4.57685e-12
4.95566e-11
5.22168e-12
4.98317e-11
5.9607e-12
5.0126e-11
6.81108e-12
5.04489e-11
7.78699e-12
5.07816e-11
8.9159e-12
5.11441e-11
1.02107e-11
5.14905e-11
1.1722e-11
5.18685e-11
1.34439e-11
5.21653e-11
1.54919e-11
5.25177e-11
1.77647e-11
5.2612e-11
2.0609e-11
5.29435e-11
2.34701e-11
2.71804e-11
2.77012e-11
2.52613e-11
-1.46452e-11
1.49999e-11
2.70147e-11
-2.51097e-11
2.47871e-11
-1.66578e-11
1.69058e-11
-2.46051e-11
2.41529e-11
-1.90618e-11
1.94814e-11
-2.37137e-11
2.30666e-11
-2.17259e-11
2.23673e-11
-2.23474e-11
2.14187e-11
-2.45709e-11
2.55118e-11
-2.0378e-11
1.90731e-11
-2.74825e-11
2.88091e-11
-1.75992e-11
1.59655e-11
-3.03632e-11
3.20071e-11
-1.4136e-11
1.2135e-11
-3.29708e-11
3.4972e-11
-9.95164e-12
7.61735e-12
-3.50467e-11
3.73786e-11
-5.15286e-12
2.60014e-12
-3.63467e-11
3.89011e-11
4.73787e-11
1.83616e-14
4.73834e-11
5.53764e-14
4.73912e-11
9.32709e-14
4.74022e-11
1.32648e-13
4.74168e-11
1.74135e-13
4.7435e-11
2.18394e-13
4.74572e-11
2.66133e-13
4.74836e-11
3.1812e-13
4.75148e-11
3.75194e-13
4.75512e-11
4.38278e-13
4.75932e-11
5.08399e-13
4.76416e-11
5.86707e-13
4.76971e-11
6.74492e-13
4.77605e-11
7.73209e-13
4.78328e-11
8.84512e-13
4.79149e-11
1.01028e-12
4.80082e-11
1.15265e-12
4.81139e-11
1.31407e-12
4.82335e-11
1.49737e-12
4.83688e-11
1.70577e-12
4.85215e-11
1.94301e-12
4.86937e-11
2.21341e-12
4.88877e-11
2.52195e-12
4.91058e-11
2.87453e-12
4.93509e-11
3.27778e-12
4.96251e-11
3.73997e-12
4.99328e-11
4.26984e-12
5.02741e-11
4.87951e-12
5.06567e-11
5.57992e-12
5.10753e-11
6.39024e-12
5.15446e-11
7.32211e-12
5.20456e-11
8.4094e-12
5.26091e-11
9.65727e-12
5.31842e-11
1.11343e-11
5.38363e-11
1.28134e-11
5.44472e-11
1.48539e-11
5.51451e-11
1.71099e-11
5.57002e-11
2.00003e-11
5.62779e-11
2.29696e-11
2.93993e-11
2.72375e-11
2.72506e-11
-1.49936e-11
1.50735e-11
2.94346e-11
-2.73975e-11
2.7244e-11
-1.73551e-11
1.7472e-11
-2.7199e-11
2.69161e-11
-2.00837e-11
2.03686e-11
-2.66123e-11
2.61219e-11
-2.31837e-11
2.37043e-11
-2.55161e-11
2.47015e-11
-2.6606e-11
2.74763e-11
-2.38007e-11
2.2354e-11
-3.01107e-11
3.16406e-11
-2.06774e-11
1.89467e-11
-3.38044e-11
3.55777e-11
-1.69194e-11
1.46541e-11
-3.72237e-11
3.95055e-11
-1.2107e-11
9.32439e-12
-4.00046e-11
4.27923e-11
-6.33641e-12
3.20618e-12
-4.17551e-11
4.4889e-11
4.74145e-11
1.6544e-14
4.742e-11
4.98954e-14
4.74292e-11
8.40414e-14
4.74423e-11
1.19526e-13
4.74595e-11
1.56917e-13
4.74811e-11
1.96813e-13
4.75074e-11
2.39854e-13
4.75388e-11
2.86735e-13
4.75758e-11
3.38217e-13
4.76189e-11
3.95136e-13
4.76689e-11
4.58426e-13
4.77265e-11
5.29132e-13
4.77926e-11
6.08427e-13
4.78681e-11
6.9764e-13
4.79544e-11
7.9828e-13
4.80526e-11
9.12065e-13
4.81643e-11
1.04096e-12
4.82912e-11
1.18722e-12
4.84351e-11
1.35344e-12
4.85983e-11
1.54262e-12
4.87831e-11
1.7582e-12
4.89923e-11
2.00424e-12
4.92289e-11
2.28537e-12
4.94961e-11
2.60719e-12
4.97982e-11
2.97589e-12
5.01384e-11
3.39948e-12
5.05225e-11
3.88611e-12
5.09533e-11
4.44788e-12
5.14395e-11
5.0948e-12
5.19809e-11
5.84687e-12
5.25915e-11
6.71381e-12
5.32637e-11
7.73288e-12
5.40214e-11
8.90449e-12
5.48396e-11
1.03074e-11
5.57598e-11
1.19028e-11
5.67219e-11
1.38753e-11
5.77937e-11
1.60568e-11
5.88551e-11
1.89083e-11
5.99764e-11
2.18852e-11
3.16156e-11
2.61397e-11
2.94038e-11
-1.49063e-11
1.4718e-11
3.18706e-11
-2.99304e-11
2.9989e-11
-1.76451e-11
1.75694e-11
-3.01445e-11
3.00959e-11
-2.06932e-11
2.07601e-11
-2.99901e-11
2.97659e-11
-2.42792e-11
2.45495e-11
-2.92887e-11
2.88737e-11
-2.85134e-11
2.9009e-11
-1.43515e-11
-1.72334e-11
1.37745e-11
1.74573e-11
-1.25208e-11
-2.00198e-11
1.19656e-11
2.03345e-11
-1.01984e-11
-2.24025e-11
9.46693e-12
2.29677e-11
-7.06761e-12
-2.43208e-11
6.14216e-12
2.51412e-11
-3.19349e-12
2.64376e-11
-2.54237e-11
2.13665e-12
4.74462e-11
1.44719e-14
4.74525e-11
4.36465e-14
4.7463e-11
7.35176e-14
4.7478e-11
1.04563e-13
4.74976e-11
1.37279e-13
4.75222e-11
1.72191e-13
4.75522e-11
2.09863e-13
4.75881e-11
2.50903e-13
4.76303e-11
2.95981e-13
4.76796e-11
3.45834e-13
4.77368e-11
4.01282e-13
4.78027e-11
4.63248e-13
4.78783e-11
5.32768e-13
4.7965e-11
6.11016e-13
4.80639e-11
6.99328e-13
4.81768e-11
7.99229e-13
4.83053e-11
9.12465e-13
4.84515e-11
1.04105e-12
4.86176e-11
1.18728e-12
4.88064e-11
1.35387e-12
4.90207e-11
1.54389e-12
4.9264e-11
1.76102e-12
4.954e-11
2.00942e-12
4.98529e-11
2.29421e-12
5.0208e-11
2.62101e-12
5.06101e-11
2.99724e-12
5.10664e-11
3.43032e-12
5.15819e-11
3.93172e-12
5.21677e-11
4.51051e-12
5.28267e-11
5.18611e-12
5.35767e-11
5.96722e-12
5.44149e-11
6.89051e-12
5.53703e-11
7.95643e-12
5.64273e-11
9.24145e-12
5.76306e-11
1.07139e-11
5.89442e-11
1.25441e-11
6.04215e-11
1.46057e-11
6.20139e-11
1.7285e-11
6.37207e-11
2.02185e-11
3.38669e-11
2.42519e-11
3.16962e-11
-1.43387e-11
1.38707e-11
3.43769e-11
-3.2669e-11
3.29883e-11
-1.74437e-11
1.71131e-11
-3.3416e-11
3.36602e-11
-2.07507e-11
2.0525e-11
-3.38741e-11
3.39371e-11
-2.47266e-11
2.47014e-11
-3.38391e-11
3.35409e-11
-2.94007e-11
2.97494e-11
-1.73606e-11
-1.82604e-11
1.68236e-11
1.84785e-11
-1.55764e-11
-2.16681e-11
1.5011e-11
2.20841e-11
-1.30574e-11
-2.51095e-11
1.22471e-11
2.58466e-11
-9.3185e-12
-2.81335e-11
8.17332e-12
2.924e-11
-4.2978e-12
3.1435e-11
-3.00454e-11
2.89344e-12
4.74749e-11
1.21766e-14
4.74818e-11
3.67243e-14
4.74935e-11
6.18592e-14
4.75101e-11
8.79835e-14
4.75318e-11
1.15517e-13
4.75591e-11
1.44902e-13
4.75924e-11
1.76614e-13
4.76321e-11
2.11168e-13
4.7679e-11
2.49129e-13
4.77337e-11
2.9112e-13
4.77972e-11
3.37836e-13
4.78704e-11
3.90058e-13
4.79545e-11
4.48665e-13
4.80508e-11
5.14655e-13
4.8161e-11
5.89162e-13
4.82868e-11
6.73486e-13
4.84301e-11
7.69116e-13
4.85934e-11
8.77768e-13
4.87793e-11
1.00142e-12
4.89908e-11
1.14239e-12
4.92314e-11
1.30334e-12
4.9505e-11
1.48742e-12
4.98163e-11
1.69825e-12
5.01701e-11
1.94028e-12
5.05729e-11
2.21841e-12
5.10308e-11
2.53918e-12
5.15524e-11
2.90907e-12
5.21451e-11
3.33837e-12
5.28216e-11
3.835e-12
5.35894e-11
4.41675e-12
5.44675e-11
5.09114e-12
5.54626e-11
5.89223e-12
5.66027e-11
6.82033e-12
5.78914e-11
7.94649e-12
5.93685e-11
9.24436e-12
6.10326e-11
1.08688e-11
6.29303e-11
1.2721e-11
6.50619e-11
1.51352e-11
6.74448e-11
1.78565e-11
3.6079e-11
2.15509e-11
3.40384e-11
-1.32429e-11
1.24892e-11
3.68614e-11
-3.55281e-11
3.61623e-11
-1.6661e-11
1.60143e-11
-3.69339e-11
3.75625e-11
-2.01381e-11
1.95219e-11
-3.82087e-11
3.87251e-11
-2.44712e-11
2.39799e-11
-3.91513e-11
3.93681e-11
-2.98432e-11
2.96547e-11
-2.08222e-11
-1.89905e-11
2.04299e-11
1.90836e-11
-1.95784e-11
-2.33517e-11
1.90976e-11
2.37203e-11
-1.72411e-11
-2.8269e-11
1.63766e-11
2.90991e-11
-1.28968e-11
-3.30794e-11
1.14314e-11
3.4538e-11
-6.16946e-12
3.8415e-11
-3.64221e-11
4.1755e-12
4.74986e-11
9.69311e-15
4.75061e-11
2.92345e-14
4.75187e-11
4.92439e-14
4.75367e-11
7.00422e-14
4.75602e-11
9.19638e-14
4.75898e-11
1.15362e-13
4.76258e-11
1.40617e-13
4.76688e-11
1.68138e-13
4.77196e-11
1.98378e-13
4.77789e-11
2.31834e-13
4.78476e-11
2.69063e-13
4.7927e-11
3.1069e-13
4.80183e-11
3.57418e-13
4.81229e-11
4.10048e-13
4.82426e-11
4.69492e-13
4.83793e-11
5.36793e-13
4.85353e-11
6.13151e-13
4.87131e-11
6.9995e-13
4.89157e-11
7.9879e-13
4.91466e-11
9.11538e-13
4.94096e-11
1.04035e-12
4.97092e-11
1.18781e-12
5.00507e-11
1.35685e-12
5.04399e-11
1.55112e-12
5.08838e-11
1.77463e-12
5.13901e-11
2.03279e-12
5.19687e-11
2.33093e-12
5.26289e-11
2.67764e-12
5.33854e-11
3.07956e-12
5.42495e-11
3.55158e-12
5.52426e-11
4.10037e-12
5.63778e-11
4.75434e-12
5.76873e-11
5.51554e-12
5.91863e-11
6.44205e-12
6.09203e-11
7.51914e-12
6.29107e-11
8.86855e-12
6.52123e-11
1.04336e-11
6.78687e-11
1.24636e-11
7.09192e-11
1.48251e-11
3.81403e-11
1.79869e-11
3.63219e-11
-1.15852e-11
1.05417e-11
3.92061e-11
-3.83756e-11
3.93719e-11
-1.52018e-11
1.4191e-11
-4.05453e-11
4.16486e-11
-1.86832e-11
1.7586e-11
-4.28371e-11
4.39775e-11
-2.31925e-11
2.20673e-11
-4.51172e-11
4.61505e-11
-2.90813e-11
2.80635e-11
-2.49654e-11
-1.90049e-11
2.48487e-11
1.88391e-11
-2.4872e-11
-2.45099e-11
2.46636e-11
2.4615e-11
-2.35731e-11
-3.14758e-11
2.29386e-11
3.20737e-11
-1.88735e-11
-3.94364e-11
1.70624e-11
4.12693e-11
-9.71318e-12
4.88686e-11
-4.57981e-11
6.65001e-12
4.7517e-11
7.05976e-15
4.7525e-11
2.12924e-14
4.75384e-11
3.58663e-14
4.75574e-11
5.10155e-14
4.75824e-11
6.69838e-14
4.76137e-11
8.40292e-14
4.76519e-11
1.02428e-13
4.76976e-11
1.22481e-13
4.77514e-11
1.44517e-13
4.78144e-11
1.68901e-13
4.78874e-11
1.96039e-13
4.79717e-11
2.26388e-13
4.80687e-11
2.60463e-13
4.81799e-11
2.98851e-13
4.83072e-11
3.4222e-13
4.84527e-11
3.91336e-13
4.86187e-11
4.47079e-13
4.88082e-11
5.1047e-13
4.90244e-11
5.82684e-13
4.92708e-11
6.651e-13
4.95519e-11
7.59314e-13
4.98725e-11
8.6723e-13
5.02384e-11
9.91029e-13
5.06561e-11
1.13343e-12
5.11335e-11
1.2974e-12
5.16791e-11
1.48702e-12
5.23042e-11
1.70625e-12
5.30198e-11
1.96161e-12
5.38421e-11
2.25807e-12
5.47857e-11
2.60698e-12
5.58741e-11
3.01347e-12
5.71271e-11
3.49925e-12
5.85792e-11
4.06641e-12
6.02582e-11
4.75914e-12
6.22139e-11
5.5686e-12
6.44898e-11
6.58623e-12
6.71537e-11
7.77778e-12
7.02821e-11
9.32608e-12
7.39593e-11
1.11587e-11
3.99077e-11
1.36097e-11
3.84149e-11
-9.36125e-12
8.0487e-12
4.12376e-11
-4.10329e-11
4.2411e-11
-1.29936e-11
1.16011e-11
-4.40131e-11
4.5647e-11
-1.62284e-11
1.45967e-11
-4.74569e-11
4.93512e-11
-2.05741e-11
1.86889e-11
-5.13858e-11
5.35052e-11
-2.65263e-11
2.44158e-11
-2.96316e-11
-1.77315e-11
2.99637e-11
1.71481e-11
-3.15169e-11
-2.41963e-11
3.1892e-11
2.37278e-11
-3.269e-11
-3.37808e-11
3.38076e-11
1.74553e-11