/*--------------------------------*- C++ -*----------------------------------*\
| =========                 |                                                 |
| \\      /  F ield         | foam-extend: Open Source CFD                    |
|  \\    /   O peration     | Version:     4.0                                |
|   \\  /    A nd           | Web:         http://www.foam-extend.org         |
|    \\/     M anipulation  |                                                 |
\*---------------------------------------------------------------------------*/
FoamFile
{
    version     2.0;
    format      ascii;
    class       volVectorField;
    location    "0.0007";
    object      U;
}
// * * * * * * * * * * * * * * * * * * * * * * * * * * * * * * * * * * * * * //

dimensions      [0 1 -1 0 0 0 0];

internalField   nonuniform List<vector> 
28770
(
(0.00159395 4.65084e-08 0)
(0.00159376 1.40235e-07 0)
(0.00159338 2.36102e-07 0)
(0.0015928 3.3557e-07 0)
(0.00159202 4.40148e-07 0)
(0.00159101 5.51421e-07 0)
(0.00158977 6.71063e-07 0)
(0.00158828 8.00866e-07 0)
(0.00158651 9.4276e-07 0)
(0.00158444 1.09884e-06 0)
(0.00158204 1.27138e-06 0)
(0.00157927 1.46288e-06 0)
(0.00157608 1.67607e-06 0)
(0.00157244 1.91397e-06 0)
(0.00156829 2.17988e-06 0)
(0.00156357 2.47743e-06 0)
(0.00155821 2.8106e-06 0)
(0.00155213 3.18375e-06 0)
(0.00154524 3.60165e-06 0)
(0.00153746 4.06948e-06 0)
(0.00152867 4.59285e-06 0)
(0.00151876 5.17777e-06 0)
(0.00150759 5.83074e-06 0)
(0.00149501 6.55848e-06 0)
(0.00148087 7.36831e-06 0)
(0.001465 8.26726e-06 0)
(0.00144719 9.26343e-06 0)
(0.00142726 1.03632e-05 0)
(0.00140497 1.15754e-05 0)
(0.00138009 1.2904e-05 0)
(0.00135237 1.43587e-05 0)
(0.00132157 1.59377e-05 0)
(0.00128739 1.76526e-05 0)
(0.0012496 1.94903e-05 0)
(0.0012079 2.14658e-05 0)
(0.00116207 2.35483e-05 0)
(0.00111183 2.57571e-05 0)
(0.001057 2.80381e-05 0)
(0.000997387 3.04127e-05 0)
(0.000932882 3.28044e-05 0)
(0.000863431 3.52282e-05 0)
(0.000789034 3.75956e-05 0)
(0.000709829 3.9904e-05 0)
(0.000625986 4.20676e-05 0)
(0.000537859 4.40635e-05 0)
(0.000445829 4.5818e-05 0)
(0.000350462 4.72973e-05 0)
(0.000252353 4.84465e-05 0)
(0.000152241 4.92363e-05 0)
(5.08831e-05 4.9637e-05 0)
(0.00159414 1.38835e-07 0)
(0.00159395 4.18625e-07 0)
(0.00159357 7.04806e-07 0)
(0.001593 1.00174e-06 0)
(0.00159223 1.31394e-06 0)
(0.00159124 1.64613e-06 0)
(0.00159002 2.00331e-06 0)
(0.00158855 2.39085e-06 0)
(0.0015868 2.81449e-06 0)
(0.00158476 3.28051e-06 0)
(0.00158239 3.79571e-06 0)
(0.00157966 4.36755e-06 0)
(0.00157653 5.00422e-06 0)
(0.00157294 5.71472e-06 0)
(0.00156884 6.50892e-06 0)
(0.00156419 7.39769e-06 0)
(0.0015589 8.39297e-06 0)
(0.0015529 9.50781e-06 0)
(0.00154611 1.07565e-05 0)
(0.00153843 1.21545e-05 0)
(0.00152976 1.37188e-05 0)
(0.00151997 1.54673e-05 0)
(0.00150894 1.74196e-05 0)
(0.00149652 1.95958e-05 0)
(0.00148255 2.2018e-05 0)
(0.00146685 2.47073e-05 0)
(0.00144925 2.76883e-05 0)
(0.00142952 3.09801e-05 0)
(0.00140745 3.46094e-05 0)
(0.00138282 3.85881e-05 0)
(0.00135534 4.29461e-05 0)
(0.00132479 4.76776e-05 0)
(0.00129087 5.28179e-05 0)
(0.00125334 5.8329e-05 0)
(0.00121188 6.42546e-05 0)
(0.00116627 7.05068e-05 0)
(0.00111622 7.71369e-05 0)
(0.00106156 8.39965e-05 0)
(0.00100205 9.11322e-05 0)
(0.000937598 9.83405e-05 0)
(0.000868122 0.000105638 0)
(0.000793612 0.00011279 0)
(0.000714207 0.00011976 0)
(0.000630059 0.000126311 0)
(0.000541531 0.000132353 0)
(0.000448996 0.000137673 0)
(0.000353035 0.00014216 0)
(0.000254252 0.000145649 0)
(0.000153407 0.000148047 0)
(5.12754e-05 0.000149265 0)
(0.0015945 2.29115e-07 0)
(0.00159432 6.90846e-07 0)
(0.00159395 1.16313e-06 0)
(0.0015934 1.65318e-06 0)
(0.00159265 2.16843e-06 0)
(0.00159169 2.71671e-06 0)
(0.0015905 3.30628e-06 0)
(0.00158907 3.94598e-06 0)
(0.00158738 4.64535e-06 0)
(0.0015854 5.41473e-06 0)
(0.0015831 6.2654e-06 0)
(0.00158045 7.2097e-06 0)
(0.0015774 8.26119e-06 0)
(0.00157392 9.43476e-06 0)
(0.00156994 1.07468e-05 0)
(0.00156541 1.22153e-05 0)
(0.00156027 1.38602e-05 0)
(0.00155444 1.5703e-05 0)
(0.00154783 1.77676e-05 0)
(0.00154036 2.00797e-05 0)
(0.00153192 2.26676e-05 0)
(0.00152238 2.55612e-05 0)
(0.00151163 2.87933e-05 0)
(0.00149951 3.23976e-05 0)
(0.00148588 3.64113e-05 0)
(0.00147055 4.087e-05 0)
(0.00145334 4.58152e-05 0)
(0.00143404 5.12793e-05 0)
(0.00141242 5.73088e-05 0)
(0.00138825 6.3923e-05 0)
(0.00136127 7.11759e-05 0)
(0.00133124 7.90554e-05 0)
(0.00129782 8.76296e-05 0)
(0.0012608 9.68257e-05 0)
(0.00121983 0.000106736 0)
(0.00117468 0.000117192 0)
(0.00112504 0.000128316 0)
(0.0010707 0.000139812 0)
(0.00101143 0.000151823 0)
(0.000947086 0.000163932 0)
(0.000877579 0.000176249 0)
(0.000802861 0.000188297 0)
(0.000723067 0.000200082 0)
(0.000638316 0.000211147 0)
(0.000548984 0.000221381 0)
(0.000455432 0.000230392 0)
(0.000358271 0.000238005 0)
(0.000258117 0.000243926 0)
(0.000155781 0.000248 0)
(5.20748e-05 0.000250068 0)
(0.00159504 3.16019e-07 0)
(0.00159486 9.52891e-07 0)
(0.00159452 1.60434e-06 0)
(0.00159399 2.28031e-06 0)
(0.00159327 2.99109e-06 0)
(0.00159235 3.74749e-06 0)
(0.00159122 4.56092e-06 0)
(0.00158986 5.44361e-06 0)
(0.00158824 6.40874e-06 0)
(0.00158635 7.47063e-06 0)
(0.00158415 8.64488e-06 0)
(0.00158162 9.9486e-06 0)
(0.0015787 1.14006e-05 0)
(0.00157537 1.30215e-05 0)
(0.00157157 1.4834e-05 0)
(0.00156723 1.68633e-05 0)
(0.00156231 1.91368e-05 0)
(0.00155673 2.16849e-05 0)
(0.0015504 2.45406e-05 0)
(0.00154323 2.774e-05 0)
(0.00153513 3.13225e-05 0)
(0.00152597 3.53302e-05 0)
(0.00151563 3.98093e-05 0)
(0.00150398 4.48071e-05 0)
(0.00149084 5.03766e-05 0)
(0.00147606 5.65679e-05 0)
(0.00145944 6.34408e-05 0)
(0.00144078 7.10412e-05 0)
(0.00141984 7.94372e-05 0)
(0.0013964 8.86561e-05 0)
(0.00137016 9.87792e-05 0)
(0.00134091 0.000109788 0)
(0.00130827 0.000121788 0)
(0.00127205 0.000134673 0)
(0.00123182 0.000148587 0)
(0.0011874 0.000163286 0)
(0.00113837 0.000178958 0)
(0.00108458 0.000195188 0)
(0.00102567 0.000212176 0)
(0.000961515 0.000229356 0)
(0.000891979 0.000246856 0)
(0.000816948 0.000264038 0)
(0.000736582 0.000280872 0)
(0.000650915 0.000296732 0)
(0.000560375 0.000311423 0)
(0.000465274 0.000324393 0)
(0.000366287 0.000335364 0)
(0.000264039 0.000343912 0)
(0.000159421 0.000349799 0)
(5.33e-05 0.000352789 0)
(0.00159574 3.9825e-07 0)
(0.00159558 1.20085e-06 0)
(0.00159525 2.02185e-06 0)
(0.00159476 2.87379e-06 0)
(0.00159408 3.76969e-06 0)
(0.00159322 4.72316e-06 0)
(0.00159216 5.74864e-06 0)
(0.00159088 6.86158e-06 0)
(0.00158937 8.07867e-06 0)
(0.00158759 9.41799e-06 0)
(0.00158553 1.08993e-05 0)
(0.00158315 1.25443e-05 0)
(0.00158041 1.43769e-05 0)
(0.00157728 1.64231e-05 0)
(0.0015737 1.87121e-05 0)
(0.00156963 2.12756e-05 0)
(0.00156499 2.41488e-05 0)
(0.00155973 2.73702e-05 0)
(0.00155376 3.09823e-05 0)
(0.001547 3.50312e-05 0)
(0.00153935 3.95677e-05 0)
(0.00153069 4.46461e-05 0)
(0.00152091 5.03258e-05 0)
(0.00150986 5.66687e-05 0)
(0.00149739 6.37436e-05 0)
(0.00148334 7.16162e-05 0)
(0.00146751 8.03661e-05 0)
(0.0014497 9.00533e-05 0)
(0.00142966 0.000100772 0)
(0.00140719 0.000112555 0)
(0.00138196 0.000125523 0)
(0.00135377 0.000139642 0)
(0.00132219 0.000155081 0)
(0.00128704 0.000171668 0)
(0.00124784 0.000189667 0)
(0.00120442 0.000208668 0)
(0.00115627 0.00022907 0)
(0.00110323 0.000250143 0)
(0.00104489 0.00027241 0)
(0.000981043 0.000294827 0)
(0.00091154 0.0003179 0)
(0.000836169 0.000340461 0)
(0.000755079 0.000362743 0)
(0.000668231 0.000383702 0)
(0.000576069 0.000403224 0)
(0.000478875 0.000420464 0)
(0.000377384 0.0004351 0)
(0.000272252 0.000446513 0)
(0.000164473 0.000454389 0)
(5.50025e-05 0.000458391 0)
(0.0015966 4.7459e-07 0)
(0.00159645 1.43105e-06 0)
(0.00159615 2.40948e-06 0)
(0.0015957 3.42486e-06 0)
(0.00159508 4.49271e-06 0)
(0.00159429 5.62932e-06 0)
(0.00159331 6.85194e-06 0)
(0.00159214 8.17906e-06 0)
(0.00159074 9.63063e-06 0)
(0.00158911 1.12283e-05 0)
(0.00158721 1.29958e-05 0)
(0.00158502 1.49592e-05 0)
(0.0015825 1.7147e-05 0)
(0.00157962 1.95908e-05 0)
(0.00157632 2.23255e-05 0)
(0.00157256 2.53894e-05 0)
(0.00156828 2.8825e-05 0)
(0.00156342 3.26791e-05 0)
(0.0015579 3.70031e-05 0)
(0.00155164 4.18532e-05 0)
(0.00154454 4.72912e-05 0)
(0.0015365 5.33837e-05 0)
(0.0015274 6.02038e-05 0)
(0.00151711 6.78276e-05 0)
(0.00150548 7.63411e-05 0)
(0.00149234 8.58255e-05 0)
(0.00147749 9.6382e-05 0)
(0.00146076 0.000108085 0)
(0.00144187 0.000121058 0)
(0.00142063 0.000135342 0)
(0.00139668 0.000151099 0)
(0.00136985 0.000168282 0)
(0.00133963 0.000187127 0)
(0.00130591 0.000207413 0)
(0.00126805 0.000229495 0)
(0.00122598 0.000252869 0)
(0.00117898 0.000278044 0)
(0.00112701 0.000304154 0)
(0.00106943 0.000331801 0)
(0.00100606 0.000359816 0)
(0.000936662 0.000388679 0)
(0.000860855 0.00041713 0)
(0.000778921 0.000445271 0)
(0.000690552 0.000471921 0)
(0.000596371 0.000496797 0)
(0.000496485 0.000518872 0)
(0.000391793 0.000537655 0)
(0.000282925 0.000552347 0)
(0.000171051 0.0005625 0)
(5.72183e-05 0.000567667 0)
(0.00159761 5.439e-07 0)
(0.00159747 1.64007e-06 0)
(0.0015972 2.76145e-06 0)
(0.0015968 3.92528e-06 0)
(0.00159624 5.14939e-06 0)
(0.00159553 6.45248e-06 0)
(0.00159466 7.85442e-06 0)
(0.0015936 9.37648e-06 0)
(0.00159235 1.10416e-05 0)
(0.00159089 1.28748e-05 0)
(0.00158918 1.49035e-05 0)
(0.00158721 1.71576e-05 0)
(0.00158495 1.96703e-05 0)
(0.00158235 2.24781e-05 0)
(0.00157938 2.56214e-05 0)
(0.00157599 2.9145e-05 0)
(0.00157213 3.30982e-05 0)
(0.00156774 3.75356e-05 0)
(0.00156275 4.25174e-05 0)
(0.00155708 4.81096e-05 0)
(0.00155064 5.43851e-05 0)
(0.00154334 6.14225e-05 0)
(0.00153505 6.9309e-05 0)
(0.00152566 7.81351e-05 0)
(0.00151502 8.80048e-05 0)
(0.00150297 9.90159e-05 0)
(0.0014893 0.000111293 0)
(0.00147386 0.000124927 0)
(0.00145635 0.000140076 0)
(0.00143661 0.000156786 0)
(0.00141422 0.00017528 0)
(0.00138904 0.00019548 0)
(0.0013605 0.000217747 0)
(0.00132853 0.000241722 0)
(0.00129235 0.000268039 0)
(0.00125196 0.000295821 0)
(0.00120649 0.000326147 0)
(0.00115587 0.000357359 0)
(0.00109939 0.000391059 0)
(0.00103674 0.000424787 0)
(0.00096766 0.000460305 0)
(0.000891582 0.000494922 0)
(0.00080873 0.000529697 0)
(0.000718684 0.000562491 0)
(0.000622043 0.0005934 0)
(0.000518882 0.000620839 0)
(0.000410161 0.000644322 0)
(0.00029658 0.00066272 0)
(0.000179474 0.000675475 0)
(6.00616e-05 0.000681971 0)
(0.00159874 6.05129e-07 0)
(0.00159862 1.82472e-06 0)
(0.00159839 3.07243e-06 0)
(0.00159804 4.36748e-06 0)
(0.00159755 5.72976e-06 0)
(0.00159694 7.18018e-06 0)
(0.00159618 8.7409e-06 0)
(0.00159526 1.04357e-05 0)
(0.00159417 1.22903e-05 0)
(0.00159289 1.43326e-05 0)
(0.00159141 1.65935e-05 0)
(0.00158969 1.91064e-05 0)
(0.00158771 2.19087e-05 0)
(0.00158544 2.50416e-05 0)
(0.00158285 2.85505e-05 0)
(0.00157988 3.24861e-05 0)
(0.0015765 3.69043e-05 0)
(0.00157264 4.1867e-05 0)
(0.00156825 4.74429e-05 0)
(0.00156326 5.37075e-05 0)
(0.00155758 6.07444e-05 0)
(0.00155112 6.8644e-05 0)
(0.00154377 7.75075e-05 0)
(0.00153542 8.74403e-05 0)
(0.00152592 9.85644e-05 0)
(0.00151514 0.000110995 0)
(0.00150286 0.000124882 0)
(0.00148894 0.000140332 0)
(0.00147306 0.000157542 0)
(0.0014551 0.000176566 0)
(0.00143457 0.000197686 0)
(0.00141143 0.000220815 0)
(0.00138491 0.000246399 0)
(0.00135516 0.000274041 0)
(0.00132102 0.000304486 0)
(0.00128288 0.000336797 0)
(0.00123924 0.000372131 0)
(0.00119057 0.000408835 0)
(0.00113545 0.000448399 0)
(0.00107386 0.000488591 0)
(0.00100534 0.000530713 0)
(0.000928803 0.000572529 0)
(0.000845082 0.000614452 0)
(0.000752928 0.000654525 0)
(0.000653504 0.000692336 0)
(0.000546346 0.000726198 0)
(0.000432802 0.000755249 0)
(0.00031343 0.000778137 0)
(0.000189901 0.000794034 0)
(6.35788e-05 0.000802152 0)
(0.00159999 6.5735e-07 0)
(0.00159989 1.98221e-06 0)
(0.00159969 3.3377e-06 0)
(0.0015994 4.74475e-06 0)
(0.001599 6.22505e-06 0)
(0.00159848 7.80138e-06 0)
(0.00159785 9.49793e-06 0)
(0.00159708 1.13407e-05 0)
(0.00159617 1.33577e-05 0)
(0.0015951 1.55796e-05 0)
(0.00159386 1.804e-05 0)
(0.00159242 2.0776e-05 0)
(0.00159076 2.38282e-05 0)
(0.00158885 2.72422e-05 0)
(0.00158667 3.10681e-05 0)
(0.00158417 3.53617e-05 0)
(0.00158132 4.01852e-05 0)
(0.00157806 4.56074e-05 0)
(0.00157434 5.17048e-05 0)
(0.0015701 5.85618e-05 0)
(0.00156526 6.62725e-05 0)
(0.00155975 7.49389e-05 0)
(0.00155346 8.46762e-05 0)
(0.00154628 9.56044e-05 0)
(0.00153808 0.000107865 0)
(0.00152874 0.00012159 0)
(0.00151803 0.000136958 0)
(0.00150584 0.000154093 0)
(0.00149183 0.000173238 0)
(0.00147592 0.00019445 0)
(0.00145754 0.000218107 0)
(0.00143674 0.000244053 0)
(0.00141262 0.000272975 0)
(0.00138541 0.000304189 0)
(0.0013538 0.000339045 0)
(0.00131819 0.000375753 0)
(0.00127703 0.000416903 0)
(0.00123054 0.000458819 0)
(0.00117748 0.000505829 0)
(0.00111733 0.000552059 0)
(0.00104985 0.000602857 0)
(0.000973575 0.000651835 0)
(0.000889016 0.000702344 0)
(0.000794944 0.000750168 0)
(0.000692221 0.000795997 0)
(0.000580484 0.000837067 0)
(0.000461018 0.000872606 0)
(0.000334555 0.000900684 0)
(0.000202988 0.000920276 0)
(6.80101e-05 0.000930296 0)
(0.00160132 6.99761e-07 0)
(0.00160125 2.11013e-06 0)
(0.0016011 3.55319e-06 0)
(0.00160086 5.0513e-06 0)
(0.00160055 6.62763e-06 0)
(0.00160014 8.30652e-06 0)
(0.00159964 1.01138e-05 0)
(0.00159904 1.20774e-05 0)
(0.00159832 1.42273e-05 0)
(0.00159748 1.65964e-05 0)
(0.0015965 1.92208e-05 0)
(0.00159536 2.21402e-05 0)
(0.00159404 2.53987e-05 0)
(0.00159253 2.90453e-05 0)
(0.0015908 3.31344e-05 0)
(0.00158881 3.77263e-05 0)
(0.00158653 4.28888e-05 0)
(0.00158392 4.86968e-05 0)
(0.00158094 5.52342e-05 0)
(0.00157752 6.25936e-05 0)
(0.00157361 7.08789e-05 0)
(0.00156914 8.02033e-05 0)
(0.001564 9.06952e-05 0)
(0.00155813 0.000102489 0)
(0.00155137 0.000115746 0)
(0.00154363 0.000130615 0)
(0.00153469 0.000147304 0)
(0.00152447 0.000165957 0)
(0.00151258 0.000186856 0)
(0.00149904 0.000210084 0)
(0.00148314 0.000236073 0)
(0.00146515 0.000264695 0)
(0.00144379 0.000296701 0)
(0.00141985 0.000331459 0)
(0.00139109 0.000370328 0)
(0.00135912 0.000411717 0)
(0.00132058 0.000457928 0)
(0.00127765 0.000505983 0)
(0.00122675 0.000559108 0)
(0.00116887 0.000613193 0)
(0.00110304 0.000671211 0)
(0.00102622 0.000729582 0)
(0.000941368 0.000789064 0)
(0.000844631 0.00084683 0)
(0.000738593 0.000902071 0)
(0.00062136 0.000952286 0)
(0.000495094 0.000995865 0)
(0.000360107 0.00103059 0)
(0.000218897 0.00105489 0)
(7.33907e-05 0.00106737 0)
(0.00160274 7.31695e-07 0)
(0.00160268 2.20646e-06 0)
(0.00160257 3.71551e-06 0)
(0.00160241 5.2823e-06 0)
(0.00160218 6.93114e-06 0)
(0.00160189 8.68759e-06 0)
(0.00160154 1.05789e-05 0)
(0.00160111 1.26342e-05 0)
(0.00160059 1.48852e-05 0)
(0.00159999 1.73666e-05 0)
(0.00159928 2.01165e-05 0)
(0.00159847 2.31769e-05 0)
(0.00159752 2.65946e-05 0)
(0.00159643 3.04213e-05 0)
(0.00159517 3.47151e-05 0)
(0.00159372 3.95403e-05 0)
(0.00159206 4.49693e-05 0)
(0.00159015 5.10826e-05 0)
(0.00158795 5.79703e-05 0)
(0.00158542 6.57328e-05 0)
(0.00158251 7.44829e-05 0)
(0.00157915 8.43441e-05 0)
(0.00157528 9.54576e-05 0)
(0.00157081 0.000107973 0)
(0.00156562 0.000122067 0)
(0.00155964 0.000137912 0)
(0.00155264 0.000155741 0)
(0.00154457 0.000175721 0)
(0.00153504 0.00019819 0)
(0.00152411 0.000223227 0)
(0.00151102 0.000251401 0)
(0.0014961 0.000282476 0)
(0.001478 0.000317584 0)
(0.0014575 0.00035559 0)
(0.00143239 0.000398986 0)
(0.00140397 0.000444459 0)
(0.00136933 0.00049746 0)
(0.00132962 0.00055024 0)
(0.00128246 0.000613416 0)
(0.0012271 0.000672812 0)
(0.00116381 0.000743662 0)
(0.00108897 0.000810123 0)
(0.00100382 0.000881053 0)
(0.000905597 0.000948934 0)
(0.000795481 0.00101526 0)
(0.000672324 0.00107578 0)
(0.000537695 0.00112885 0)
(0.000392351 0.00117139 0)
(0.000238996 0.00120132 0)
(8.02293e-05 0.00121674 0)
(0.0016042 7.52646e-07 0)
(0.00160417 2.26967e-06 0)
(0.00160411 3.82208e-06 0)
(0.00160401 5.43406e-06 0)
(0.00160388 7.13072e-06 0)
(0.00160371 8.93848e-06 0)
(0.00160351 1.08855e-05 0)
(0.00160325 1.30019e-05 0)
(0.00160295 1.53206e-05 0)
(0.0016026 1.78776e-05 0)
(0.00160218 2.07124e-05 0)
(0.0016017 2.38688e-05 0)
(0.00160114 2.73954e-05 0)
(0.00160048 3.13465e-05 0)
(0.00159972 3.57827e-05 0)
(0.00159885 4.07716e-05 0)
(0.00159783 4.63894e-05 0)
(0.00159665 5.2721e-05 0)
(0.00159528 5.98622e-05 0)
(0.00159369 6.79197e-05 0)
(0.00159183 7.70141e-05 0)
(0.00158967 8.72784e-05 0)
(0.00158714 9.88652e-05 0)
(0.00158418 0.000111937 0)
(0.00158068 0.00012669 0)
(0.0015766 0.000143313 0)
(0.00157171 0.000162065 0)
(0.00156603 0.000183144 0)
(0.00155909 0.000206917 0)
(0.00155114 0.000233518 0)
(0.00154115 0.000263542 0)
(0.00152996 0.000296864 0)
(0.00151538 0.000334571 0)
(0.00149956 0.00037584 0)
(0.00147811 0.000422795 0)
(0.00145554 0.000473063 0)
(0.00142415 0.000530667 0)
(0.00139118 0.000590546 0)
(0.00134676 0.000659155 0)
(0.0012964 0.000728789 0)
(0.00123748 0.000805823 0)
(0.00116074 0.000885437 0)
(0.00107728 0.000967933 0)
(0.000976041 0.00105007 0)
(0.000862793 0.00112991 0)
(0.000732583 0.00120411 0)
(0.000588713 0.00126958 0)
(0.000431065 0.00132268 0)
(0.000263303 0.00136023 0)
(8.84926e-05 0.00137968 0)
(0.0016057 7.62263e-07 0)
(0.00160569 2.29871e-06 0)
(0.00160567 3.8711e-06 0)
(0.00160565 5.50402e-06 0)
(0.00160561 7.223e-06 0)
(0.00160557 9.0549e-06 0)
(0.00160552 1.10284e-05 0)
(0.00160545 1.31742e-05 0)
(0.00160537 1.55259e-05 0)
(0.00160527 1.81203e-05 0)
(0.00160515 2.09977e-05 0)
(0.00160501 2.42031e-05 0)
(0.00160484 2.77864e-05 0)
(0.00160464 3.18033e-05 0)
(0.0016044 3.63164e-05 0)
(0.00160411 4.13958e-05 0)
(0.00160376 4.71201e-05 0)
(0.00160334 5.35781e-05 0)
(0.00160283 6.08695e-05 0)
(0.00160221 6.91064e-05 0)
(0.00160146 7.84157e-05 0)
(0.00160055 8.89388e-05 0)
(0.00159942 0.000100838 0)
(0.00159805 0.000114289 0)
(0.00159634 0.000129501 0)
(0.00159427 0.000146685 0)
(0.00159164 0.000166124 0)
(0.00158849 0.00018804 0)
(0.00158437 0.000212852 0)
(0.00157955 0.000240709 0)
(0.00157304 0.000272334 0)
(0.00156565 0.000307517 0)
(0.00155533 0.000347775 0)
(0.00154389 0.000391685 0)
(0.00152759 0.000442939 0)
(0.0015096 0.000496543 0)
(0.00148437 0.000561984 0)
(0.00145543 0.000624897 0)
(0.00141783 0.000708444 0)
(0.00137072 0.000778745 0)
(0.0013172 0.000878789 0)
(0.00124771 0.000967038 0)
(0.00116503 0.00106361 0)
(0.0010642 0.00115949 0)
(0.000946312 0.00125481 0)
(0.000809093 0.00134477 0)
(0.0006538 0.00142488 0)
(0.000481105 0.00149054 0)
(0.000294808 0.00153728 0)
(9.92779e-05 0.00156165 0)
(0.0016072 7.60365e-07 0)
(0.00160721 2.29302e-06 0)
(0.00160725 3.86164e-06 0)
(0.00160729 5.49084e-06 0)
(0.00160736 7.20618e-06 0)
(0.00160744 9.03457e-06 0)
(0.00160754 1.10047e-05 0)
(0.00160766 1.31476e-05 0)
(0.0016078 1.54969e-05 0)
(0.00160796 1.80895e-05 0)
(0.00160814 2.09662e-05 0)
(0.00160835 2.41724e-05 0)
(0.00160858 2.77584e-05 0)
(0.00160884 3.17809e-05 0)
(0.00160912 3.63032e-05 0)
(0.00160943 4.13969e-05 0)
(0.00160976 4.71423e-05 0)
(0.00161011 5.36302e-05 0)
(0.00161049 6.09634e-05 0)
(0.00161087 6.92576e-05 0)
(0.00161125 7.86445e-05 0)
(0.00161163 8.92719e-05 0)
(0.00161196 0.00010131 0)
(0.00161225 0.000114944 0)
(0.00161241 0.000130397 0)
(0.00161246 0.000147899 0)
(0.0016122 0.000167748 0)
(0.00161179 0.000190208 0)
(0.00161067 0.000215706 0)
(0.00160938 0.000244486 0)
(0.00160657 0.000277233 0)
(0.00160383 0.000313981 0)
(0.0015978 0.000356011 0)
(0.00159274 0.00040261 0)
(0.00158078 0.00045649 0)
(0.0015721 0.000514809 0)
(0.00154983 0.000583646 0)
(0.00153459 0.000655012 0)
(0.00149741 0.000741502 0)
(0.0014632 0.000826616 0)
(0.00142185 0.000924899 0)
(0.00134171 0.00103289 0)
(0.00126573 0.00114622 0)
(0.00116326 0.00126281 0)
(0.00104422 0.00137855 0)
(0.000899107 0.0014894 0)
(0.000731441 0.00158991 0)
(0.000541124 0.00167351 0)
(0.000332932 0.00173362 0)
(0.000112355 0.00176514 0)
(0.00160869 7.46944e-07 0)
(0.00160873 2.25258e-06 0)
(0.0016088 3.79366e-06 0)
(0.00160892 5.39444e-06 0)
(0.00160908 7.08012e-06 0)
(0.00160929 8.87728e-06 0)
(0.00160954 1.08143e-05 0)
(0.00160985 1.29216e-05 0)
(0.00161021 1.52328e-05 0)
(0.00161062 1.77842e-05 0)
(0.00161111 2.06165e-05 0)
(0.00161166 2.37746e-05 0)
(0.00161229 2.73087e-05 0)
(0.00161301 3.12754e-05 0)
(0.00161381 3.57381e-05 0)
(0.00161472 4.07683e-05 0)
(0.00161574 4.6447e-05 0)
(0.00161687 5.28658e-05 0)
(0.00161813 6.01286e-05 0)
(0.00161953 6.83534e-05 0)
(0.00162106 7.76744e-05 0)
(0.00162274 8.82438e-05 0)
(0.00162456 0.000100236 0)
(0.00162654 0.000113848 0)
(0.00162861 0.000129308 0)
(0.00163085 0.000146864 0)
(0.00163306 0.000166827 0)
(0.00163545 0.000189497 0)
(0.00163751 0.000215316 0)
(0.0016398 0.000244595 0)
(0.00164109 0.000278045 0)
(0.00164279 0.000315801 0)
(0.00164211 0.000359256 0)
(0.00164227 0.000407659 0)
(0.00163745 0.000464483 0)
(0.0016341 0.000525433 0)
(0.00162165 0.000601329 0)
(0.00160999 0.000673739 0)
(0.00158585 0.000782717 0)
(0.00155029 0.000849763 0)
(0.00151917 0.00100216 0)
(0.00146442 0.00112061 0)
(0.00139015 0.0012411 0)
(0.00129168 0.0013777 0)
(0.00116818 0.00151535 0)
(0.00101605 0.00165239 0)
(0.000834067 0.00177673 0)
(0.000621812 0.00188168 0)
(0.000384532 0.00195791 0)
(0.000130146 0.00199831 0)
(0.00161014 7.22169e-07 0)
(0.0016102 2.1779e-06 0)
(0.00161032 3.668e-06 0)
(0.00161051 5.216e-06 0)
(0.00161077 6.84636e-06 0)
(0.0016111 8.58488e-06 0)
(0.0016115 1.04591e-05 0)
(0.00161198 1.24988e-05 0)
(0.00161256 1.47364e-05 0)
(0.00161323 1.72076e-05 0)
(0.00161401 1.99519e-05 0)
(0.0016149 2.30133e-05 0)
(0.00161592 2.64411e-05 0)
(0.00161709 3.02907e-05 0)
(0.00161841 3.46245e-05 0)
(0.00161991 3.9513e-05 0)
(0.0016216 4.50364e-05 0)
(0.00162351 5.12856e-05 0)
(0.00162565 5.83641e-05 0)
(0.00162805 6.63897e-05 0)
(0.00163073 7.54974e-05 0)
(0.00163372 8.58409e-05 0)
(0.00163703 9.75971e-05 0)
(0.00164071 0.000110967 0)
(0.00164473 0.000126185 0)
(0.0016492 0.000143515 0)
(0.00165395 0.000163269 0)
(0.00165926 0.000185788 0)
(0.00166462 0.000211504 0)
(0.0016708 0.000240837 0)
(0.00167629 0.000274422 0)
(0.00168335 0.000312694 0)
(0.00168774 0.000356733 0)
(0.00169577 0.000406649 0)
(0.0016961 0.00046478 0)
(0.0017061 0.000529455 0)
(0.00169505 0.000607452 0)
(0.0017122 0.000689034 0)
(0.00166976 0.000799251 0)
(0.0017191 0.000891723 0)
(0.00168187 0.000998985 0)
(0.00153409 0.000992422 0)
(0.00149661 0.00114067 0)
(0.00142408 0.0013035 0)
(0.00131859 0.00147343 0)
(0.00117483 0.00164685 0)
(0.000990103 0.00181713 0)
(0.000766925 0.00197223 0)
(0.000509559 0.00209807 0)
(0.000226381 0.00218297 0)
(0.00161153 6.86382e-07 0)
(0.00161161 2.07001e-06 0)
(0.00161178 3.48639e-06 0)
(0.00161204 4.95797e-06 0)
(0.00161238 6.50807e-06 0)
(0.00161283 8.16133e-06 0)
(0.00161338 9.94404e-06 0)
(0.00161404 1.18847e-05 0)
(0.00161482 1.40142e-05 0)
(0.00161573 1.6367e-05 0)
(0.00161679 1.89807e-05 0)
(0.00161801 2.18979e-05 0)
(0.00161942 2.51658e-05 0)
(0.00162102 2.88378e-05 0)
(0.00162284 3.29744e-05 0)
(0.00162492 3.76439e-05 0)
(0.00162726 4.2924e-05 0)
(0.00162992 4.89034e-05 0)
(0.00163292 5.56833e-05 0)
(0.0016363 6.33794e-05 0)
(0.00164011 7.21244e-05 0)
(0.00164438 8.20712e-05 0)
(0.00164916 9.3395e-05 0)
(0.00165453 0.000106299 0)
(0.00166048 0.000121016 0)
(0.00166716 0.000137821 0)
(0.00167446 0.000157021 0)
(0.00168268 0.000178994 0)
(0.00169141 0.000204142 0)
(0.0017014 0.000233008 0)
(0.00171145 0.000266079 0)
(0.00172339 0.000304206 0)
(0.00173411 0.000347833 0)
(0.00174807 0.000398553 0)
(0.00175769 0.000456073 0)
(0.0017738 0.000524351 0)
(0.0017779 0.000599114 0)
(0.0017978 0.000693703 0)
(0.00178432 0.000784446 0)
(0.00182037 0.000927472 0)
(0.00186571 0.00101546 0)
(0.00167645 0.00108725 0)
(0.00165167 0.00125574 0)
(0.00159187 0.00144203 0)
(0.00149393 0.00164103 0)
(0.00135223 0.00184451 0)
(0.00115153 0.00205446 0)
(0.000902397 0.00224683 0)
(0.000605091 0.00240151 0)
(0.000269499 0.00250066 0)
(0.00161284 6.40102e-07 0)
(0.00161294 1.93046e-06 0)
(0.00161315 3.25145e-06 0)
(0.00161347 4.62406e-06 0)
(0.0016139 6.07012e-06 0)
(0.00161446 7.61269e-06 0)
(0.00161515 9.2764e-06 0)
(0.00161597 1.10879e-05 0)
(0.00161695 1.30765e-05 0)
(0.00161809 1.52741e-05 0)
(0.00161942 1.77164e-05 0)
(0.00162096 2.04434e-05 0)
(0.00162272 2.34998e-05 0)
(0.00162473 2.6936e-05 0)
(0.00162704 3.08092e-05 0)
(0.00162965 3.51844e-05 0)
(0.00163263 4.01355e-05 0)
(0.001636 4.57473e-05 0)
(0.00163982 5.21164e-05 0)
(0.00164415 5.93544e-05 0)
(0.00164903 6.75892e-05 0)
(0.00165455 7.69693e-05 0)
(0.00166076 8.76646e-05 0)
(0.00166776 9.98763e-05 0)
(0.0016756 0.000113831 0)
(0.00168445 0.000129806 0)
(0.00169427 0.000148103 0)
(0.0017054 0.000169118 0)
(0.00171751 0.000193238 0)
(0.00173145 0.000221064 0)
(0.00174601 0.000253054 0)
(0.0017634 0.000290188 0)
(0.00178012 0.000332882 0)
(0.00180176 0.000382913 0)
(0.00181928 0.000440189 0)
(0.00184616 0.00050844 0)
(0.00186087 0.000585198 0)
(0.00189367 0.000680232 0)
(0.00189866 0.000780225 0)
(0.00193301 0.000919271 0)
(0.002036 0.00101461 0)
(0.00183966 0.00114715 0)
(0.00183352 0.00133604 0)
(0.00179215 0.0015509 0)
(0.00170966 0.00178692 0)
(0.001587 0.00201805 0)
(0.0013587 0.00229411 0)
(0.00108266 0.00254706 0)
(0.000735825 0.00275165 0)
(0.000328957 0.0028812 0)
(0.00161404 5.84003e-07 0)
(0.00161417 1.7613e-06 0)
(0.00161442 2.96661e-06 0)
(0.0016148 4.21913e-06 0)
(0.00161531 5.53886e-06 0)
(0.00161597 6.94689e-06 0)
(0.00161678 8.46581e-06 0)
(0.00161776 1.01201e-05 0)
(0.00161892 1.19365e-05 0)
(0.00162027 1.39444e-05 0)
(0.00162185 1.61768e-05 0)
(0.00162368 1.86704e-05 0)
(0.00162577 2.14663e-05 0)
(0.00162818 2.46113e-05 0)
(0.00163092 2.81582e-05 0)
(0.00163405 3.21674e-05 0)
(0.00163761 3.67076e-05 0)
(0.00164165 4.18577e-05 0)
(0.00164624 4.77082e-05 0)
(0.00165145 5.43637e-05 0)
(0.00165735 6.19446e-05 0)
(0.00166404 7.05914e-05 0)
(0.00167159 8.04651e-05 0)
(0.00168015 9.17588e-05 0)
(0.00168979 0.000104688 0)
(0.00170072 0.000119525 0)
(0.00171295 0.000136553 0)
(0.00172687 0.000156183 0)
(0.00174228 0.000178757 0)
(0.00175997 0.000204952 0)
(0.00177914 0.000235087 0)
(0.00180155 0.000270439 0)
(0.0018249 0.000310937 0)
(0.00185314 0.000359374 0)
(0.00188061 0.000414035 0)
(0.00191579 0.000481819 0)
(0.00194611 0.000555462 0)
(0.00198876 0.000653122 0)
(0.00201838 0.000751084 0)
(0.00206511 0.000896562 0)
(0.00219623 0.000992316 0)
(0.00202031 0.00117022 0)
(0.00204148 0.00137932 0)
(0.00202707 0.00162755 0)
(0.00196209 0.00192519 0)
(0.00187835 0.00230694 0)
(0.00165194 0.00265492 0)
(0.00132185 0.00299066 0)
(0.000879073 0.00327261 0)
(0.000340309 0.00344499 0)
(0.00161513 5.18932e-07 0)
(0.00161527 1.56507e-06 0)
(0.00161556 2.63616e-06 0)
(0.00161599 3.7493e-06 0)
(0.00161658 4.9223e-06 0)
(0.00161733 6.17397e-06 0)
(0.00161825 7.52447e-06 0)
(0.00161937 8.99562e-06 0)
(0.00162069 1.06113e-05 0)
(0.00162224 1.2398e-05 0)
(0.00162405 1.43849e-05 0)
(0.00162614 1.66051e-05 0)
(0.00162854 1.90955e-05 0)
(0.00163129 2.1898e-05 0)
(0.00163443 2.50604e-05 0)
(0.00163803 2.8637e-05 0)
(0.00164212 3.26898e-05 0)
(0.00164677 3.72905e-05 0)
(0.00165207 4.25213e-05 0)
(0.00165809 4.84774e-05 0)
(0.00166492 5.52688e-05 0)
(0.00167268 6.30248e-05 0)
(0.00168148 7.18933e-05 0)
(0.00169148 8.20539e-05 0)
(0.00170279 9.37055e-05 0)
(0.00171566 0.000107107 0)
(0.00173016 0.000122521 0)
(0.00174673 0.000140343 0)
(0.00176526 0.000160896 0)
(0.00178661 0.00018484 0)
(0.00181013 0.0002125 0)
(0.00183767 0.000245087 0)
(0.00186721 0.000282696 0)
(0.00190271 0.000327787 0)
(0.00193917 0.000379484 0)
(0.00198464 0.000443202 0)
(0.00202861 0.000514993 0)
(0.00208522 0.000607434 0)
(0.00213703 0.000707929 0)
(0.00220143 0.000846082 0)
(0.00235805 0.00094175 0)
(0.00221692 0.00115346 0)
(0.00227516 0.00137808 0)
(0.00230429 0.00165117 0)
(0.00229095 0.00197742 0)
(0.00227014 0.00245165 0)
(0.00207173 0.00291052 0)
(0.00172069 0.00338852 0)
(0.00118866 0.00381675 0)
(0.000485582 0.00409237 0)
(0.00161608 4.45859e-07 0)
(0.00161624 1.3447e-06 0)
(0.00161656 2.26502e-06 0)
(0.00161703 3.22154e-06 0)
(0.00161768 4.2296e-06 0)
(0.00161852 5.30542e-06 0)
(0.00161954 6.46636e-06 0)
(0.00162078 7.73126e-06 0)
(0.00162225 9.12074e-06 0)
(0.00162397 1.06576e-05 0)
(0.00162597 1.23672e-05 0)
(0.00162829 1.42781e-05 0)
(0.00163096 1.64224e-05 0)
(0.00163402 1.88363e-05 0)
(0.00163752 2.15614e-05 0)
(0.00164152 2.4645e-05 0)
(0.00164608 2.81412e-05 0)
(0.00165128 3.21125e-05 0)
(0.0016572 3.6631e-05 0)
(0.00166394 4.17804e-05 0)
(0.0016716 4.76574e-05 0)
(0.00168032 5.43764e-05 0)
(0.00169023 6.20682e-05 0)
(0.00170151 7.08934e-05 0)
(0.00171432 8.10286e-05 0)
(0.00172893 9.27091e-05 0)
(0.00174549 0.000106167 0)
(0.00176445 0.000121772 0)
(0.00178585 0.000139804 0)
(0.0018105 0.000160901 0)
(0.00183813 0.000185314 0)
(0.00187029 0.000214281 0)
(0.00190588 0.000247733 0)
(0.00194791 0.000288309 0)
(0.00199362 0.000334778 0)
(0.00204848 0.000393071 0)
(0.00210692 0.000458717 0)
(0.00217768 0.000544899 0)
(0.00225205 0.000639968 0)
(0.00233992 0.000770708 0)
(0.00251473 0.000858032 0)
(0.00242351 0.00109319 0)
(0.00252858 0.00132649 0)
(0.00261658 0.00162047 0)
(0.00267462 0.00198992 0)
(0.00274608 0.00253793 0)
(0.00262366 0.00313759 0)
(0.00229134 0.00382083 0)
(0.00165969 0.00450063 0)
(0.0007062 0.00498153 0)
(0.00161688 3.65913e-07 0)
(0.00161705 1.10359e-06 0)
(0.00161739 1.85893e-06 0)
(0.00161791 2.64403e-06 0)
(0.00161862 3.47151e-06 0)
(0.00161952 4.3547e-06 0)
(0.00162063 5.3079e-06 0)
(0.00162197 6.34661e-06 0)
(0.00162356 7.48784e-06 0)
(0.00162542 8.75038e-06 0)
(0.00162759 1.01552e-05 0)
(0.00163011 1.17258e-05 0)
(0.001633 1.34887e-05 0)
(0.00163632 1.5474e-05 0)
(0.00164012 1.7716e-05 0)
(0.00164447 2.02541e-05 0)
(0.00164943 2.31332e-05 0)
(0.00165509 2.64054e-05 0)
(0.00166154 3.01306e-05 0)
(0.00166889 3.43791e-05 0)
(0.00167726 3.92317e-05 0)
(0.00168679 4.47848e-05 0)
(0.00169765 5.11483e-05 0)
(0.00171004 5.84586e-05 0)
(0.00172415 6.68653e-05 0)
(0.00174027 7.65695e-05 0)
(0.00175862 8.77705e-05 0)
(0.00177966 0.000100786 0)
(0.00180357 0.000115863 0)
(0.00183117 0.000133549 0)
(0.0018624 0.000154095 0)
(0.00189878 0.000178535 0)
(0.00193969 0.000206956 0)
(0.00198794 0.000241456 0)
(0.00204175 0.000281512 0)
(0.002106 0.000331517 0)