/*--------------------------------*- C++ -*----------------------------------*\
| =========                 |                                                 |
| \\      /  F ield         | foam-extend: Open Source CFD                    |
|  \\    /   O peration     | Version:     4.0                                |
|   \\  /    A nd           | Web:         http://www.foam-extend.org         |
|    \\/     M anipulation  |                                                 |
\*---------------------------------------------------------------------------*/
FoamFile
{
    version     2.0;
    format      ascii;
    class       volScalarField;
    location    "0.00200001";
    object      k;
}
// * * * * * * * * * * * * * * * * * * * * * * * * * * * * * * * * * * * * * //

dimensions      [0 2 -2 0 0 0 0];

internalField   nonuniform List<scalar> 
28770
(
3.20905
0.0652714
0.000650172
6.78118e-06
3.34197e-07
3.12266e-07
3.51511e-07
3.8803e-07
4.21214e-07
4.51075e-07
4.77615e-07
5.0083e-07
5.20713e-07
5.37263e-07
5.50486e-07
5.6039e-07
5.66996e-07
5.70341e-07
5.7041e-07
5.67386e-07
5.61212e-07
5.5203e-07
5.39943e-07
5.2508e-07
5.07592e-07
4.87654e-07
4.65465e-07
4.41253e-07
4.15267e-07
3.87783e-07
3.59098e-07
3.29533e-07
2.99424e-07
2.69123e-07
2.38991e-07
2.0939e-07
1.80683e-07
1.53225e-07
1.27354e-07
1.03382e-07
8.1593e-08
6.22243e-08
4.54623e-08
3.14276e-08
2.01657e-08
1.16353e-08
5.69797e-09
2.09946e-09
4.31327e-10
2.91015e-11
3.30443
0.0300925
0.000302905
9.63875e-06
8.01463e-06
9.27489e-06
1.04612e-05
1.15473e-05
1.25339e-05
1.34217e-05
1.42108e-05
1.49007e-05
1.54916e-05
1.59834e-05
1.63761e-05
1.66701e-05
1.68659e-05
1.69646e-05
1.69658e-05
1.68751e-05
1.66905e-05
1.64165e-05
1.6056e-05
1.56129e-05
1.50916e-05
1.44976e-05
1.38366e-05
1.31155e-05
1.23416e-05
1.15233e-05
1.06694e-05
9.78944e-06
8.89344e-06
7.99189e-06
7.09552e-06
6.21517e-06
5.36164e-06
4.54543e-06
3.77659e-06
3.06444e-06
2.41731e-06
1.84229e-06
1.34483e-06
9.28517e-07
5.94637e-07
3.41938e-07
1.66284e-07
6.01384e-08
1.14543e-08
4.47454e-10
3.3117
0.0310204
0.000337524
4.86261e-05
5.51961e-05
6.40456e-05
7.2211e-05
7.9685e-05
8.64757e-05
9.25858e-05
9.80152e-05
0.000102763
0.000106827
0.000110208
0.000112906
0.000114924
0.000116265
0.000116937
0.000116936
0.000116303
0.000115022
0.000113123
0.00011063
0.000107566
0.000103966
9.98619e-05
9.52975e-05
9.03184e-05
8.49764e-05
7.93282e-05
7.34353e-05
6.73633e-05
6.11816e-05
5.49624e-05
4.87798e-05
4.27088e-05
3.68236e-05
3.11969e-05
2.58978e-05
2.09908e-05
1.65333e-05
1.25742e-05
9.15138e-06
6.28948e-06
3.9977e-06
2.26791e-06
1.07308e-06
3.65006e-07
6.13076e-08
2.17965e-09
3.31494
0.0324388
0.000438734
0.000163827
0.000194515
0.000225621
0.000254238
0.000280429
0.000304225
0.000325634
0.000344654
0.000361282
0.000375512
0.000387342
0.000396773
0.000403815
0.000408481
0.000410796
0.000410752
0.000408478
0.000403934
0.000397222
0.000388417
0.000377612
0.000364918
0.000350458
0.00033438
0.000316846
0.000298038
0.000278155
0.000257413
0.000236046
0.000214294
0.000192414
0.000170667
0.000149314
0.000128619
0.000108837
9.02119e-05
7.29704e-05
5.73163e-05
4.34227e-05
3.14253e-05
2.14144e-05
1.34279e-05
7.44733e-06
3.39088e-06
1.08539e-06
1.70519e-07
5.90869e-09
3.31861
0.0336005
0.000635349
0.000404259
0.000485793
0.000563345
0.000634488
0.000699529
0.000758591
0.00081171
0.000858889
0.000900115
0.000935377
0.000964669
0.000987996
0.00100538
0.00101684
0.00102246
0.00102221
0.00101641
0.00100496
0.000988108
0.000966053
0.000939019
0.000907278
0.000871147
0.000830986
0.000787202
0.000740248
0.000690621
0.000638862
0.000585546
0.000531283
0.000476708
0.00042247
0.00036923
0.000317638
0.000268338
0.000221936
0.000179005
0.000140057
0.000105536
7.5793e-05
5.10741e-05
3.15011e-05
1.70505e-05
7.50309e-06
2.30628e-06
3.51184e-07
1.20455e-08
3.32334
0.0345184
0.000959209
0.0008174
0.000988183
0.00114644
0.00129101
0.00142287
0.00154246
0.00164992
0.00174529
0.00182857
0.00189976
0.00195883
0.0020058
0.00204071
0.00206363
0.00207466
0.00207382
0.00206168
0.00203811
0.00200357
0.00195847
0.00190326
0.00183851
0.00176483
0.00168298
0.00159379
0.00149816
0.0013971
0.00129173
0.00118321
0.00107278
0.000961738
0.000851408
0.00074313
0.000638241
0.000538049
0.000443803
0.000356681
0.000277693
0.000207854
0.000147939
9.84898e-05
5.9776e-05
3.1672e-05
1.3587e-05
4.07414e-06
6.10606e-07
2.08377e-08
3.32912
0.0353161
0.00143854
0.00144452
0.00175463
0.00203801
0.00229566
0.00252988
0.00274181
0.00293197
0.00310055
0.00324761
0.00337317
0.00347723
0.00355981
0.00362101
0.00366094
0.0036798
0.0036776
0.00365534
0.0036128
0.00355084
0.00347012
0.00337146
0.00325586
0.00312445
0.00297853
0.00281956
0.00264918
0.0024692
0.00228157
0.00208837
0.00189183
0.00169425
0.00149798
0.00130535
0.00111864
0.000940442
0.000773032
0.00061855
0.000478958
0.000355993
0.000251079
0.00016522
9.88394e-05
5.1533e-05
2.17155e-05
6.41238e-06
9.52337e-07
3.24047e-08
3.33584
0.0360903
0.00209509
0.00231755
0.00282746
0.00328979
0.00370833
0.00408742
0.00442946
0.00473571
0.00500674
0.00524284
0.00544413
0.00561067
0.00574256
0.00583994
0.00590303
0.00593213
0.00592732
0.00589011
0.00582024
0.00571904
0.00558758
0.00542721
0.00523949
0.00502628
0.00478965
0.00453199
0.00425595
0.00396443
0.00366061
0.00334787
0.00302953
0.00270929
0.00239135
0.00207967
0.00177816
0.00149071
0.00122106
0.000972735
0.00074903
0.000552844
0.00038655
0.00025172
0.000148781
7.6613e-05
3.18907e-05
9.3239e-06
1.37661e-06
4.67447e-08
3.34335
0.036901
0.00294306
0.00345756
0.00423572
0.00493862
0.00557285
0.0061453
0.00666023
0.00712009
0.0075262
0.00787932
0.00817982
0.00842795
0.00862395
0.00876806
0.00886067
0.00890223
0.00889295
0.00883494
0.00872793
0.00857389
0.00837442
0.00813152
0.00784756
0.00752531
0.00716791
0.00677894
0.00636238
0.00592265
0.00546356
0.00499116
0.0045109
0.00402852
0.0035499
0.00308106
0.00262803
0.00219672
0.00179289
0.00142198
0.00108903
0.000798489
0.000553937
0.000357504
0.000209237
0.000106708
4.40529e-05
1.27944e-05
1.88131e-06
6.37693e-08
3.35153
0.037782
0.00398844
0.00487393
0.00599359
0.00700389
0.00791367
0.00873247
0.0094668
0.0101208
0.0106969
0.0111968
0.0116214
0.0119711
0.0122465
0.012448
0.0125764
0.0126321
0.0126158
0.0125302
0.0123751
0.0121532
0.0118668
0.0115187
0.0111123
0.0106514
0.0101408
0.00958514
0.00898924
0.0083604
0.00770546
0.00703184
0.00634737
0.0056603
0.00497914
0.00431262
0.00366943
0.0030582
0.00248722
0.00196438
0.00149683
0.0010909
0.000751563
0.000481444
0.000279559
0.000141516
5.80848e-05
1.67934e-05
2.46268e-06
8.33801e-08
3.36023
0.0387488
0.00522848
0.00656354
0.00809906
0.00948564
0.0107333
0.0118537
0.012856
0.0137463
0.0145286
0.0152058
0.0157794
0.0162507
0.0166205
0.0168899
0.0170598
0.017131
0.0171044
0.0169835
0.0167684
0.0164626
0.0160694
0.0155924
0.0150362
0.0144063
0.013707
0.0129469
0.0121334
0.0112755
0.0103825
0.00946434
0.00853208
0.00759703
0.00667097
0.00576596
0.00489409
0.00406732
0.00329709
0.00259405
0.00196777
0.00142646
0.000976704
0.000621869
0.0003589
0.000180664
7.3848e-05
2.12787e-05
3.11387e-06
1.05354e-07
3.36933
0.0398035
0.00665197
0.00851132
0.0105346
0.0123648
0.014012
0.0154894
0.0168082
0.0179767
0.019001
0.0198853
0.0206325
0.0212447
0.0217235
0.0220704
0.0222867
0.0223736
0.022333
0.0221688
0.0218815
0.0214756
0.0209552
0.0203254
0.0195911
0.0187594
0.0178389
0.0168389
0.0157695
0.014642
0.0134692
0.0122643
0.0110418
0.00981673
0.00860491
0.00742243
0.00628548
0.00520996
0.00421097
0.00330226
0.0024956
0.0018007
0.00122585
0.000776512
0.000446264
0.000223897
9.13318e-05
2.62565e-05
3.83335e-06
1.29319e-07
3.37867
0.0409399
0.00823957
0.0106906
0.0132671
0.0156037
0.0177084
0.0195948
0.0212763
0.0227631
0.0240634
0.0251832
0.0261269
0.0268977
0.0274984
0.0279309
0.0281976
0.0283002
0.0282412
0.0280252
0.0276535
0.0271316
0.0264645
0.0256569
0.024718
0.0236567
0.022483
0.0212087
0.019847
0.0184124
0.0169208
0.0153898
0.0138376
0.012284
0.0107492
0.00925416
0.00781974
0.00646647
0.00521363
0.00407821
0.00307365
0.00220943
0.00149527
0.000942459
0.000540251
0.000270993
0.00011072
3.18577e-05
4.65462e-06
1.57223e-07
3.38812
0.0421439
0.00996405
0.0130634
0.0162492
0.0191463
0.0217593
0.0241014
0.0261868
0.0280276
0.0296341
0.0310144
0.0321748
0.0331196
0.0338531
0.0343783
0.0346983
0.0348154
0.0347334
0.0344577
0.0339901
0.0333364
0.0325027
0.0314978
0.0303313
0.029014
0.0275586
0.0259795
0.0242934
0.0225181
0.0206739
0.0187823
0.0168666
0.0149513
0.0130621
0.011225
0.00946644
0.00781223
0.00628645
0.00490974
0.00369605
0.00264987
0.00178277
0.00111793
0.000640136
0.00032205
0.000132155
3.81667e-05
5.57082e-06
1.8711e-07
3.39752
0.0433965
0.0117915
0.0155823
0.019421
0.0229217
0.0260839
0.0289195
0.0314426
0.033667
0.035605
0.0372663
0.0386595
0.0397907
0.0406655
0.0412881
0.0416631
0.041793
0.0416838
0.0413407
0.0407656
0.0399666
0.0389523
0.0377326
0.0363185
0.0347233
0.0329625
0.0310537
0.0290168
0.026874
0.0246497
0.0223704
0.0200643
0.0177619
0.0154938
0.0132925
0.0111902
0.00921861
0.00740792
0.00578396
0.00436048
0.00311697
0.00208412
0.00130377
0.000750119
0.000381346
0.000158249
4.62734e-05
6.77304e-06
2.15264e-07
3.40673
0.0446735
0.0136822
0.0181921
0.0227123
0.0268454
0.0305854
0.0339413
0.0369266
0.039556
0.0418433
0.0438007
0.045438
0.0467639
0.0477854
0.0485083
0.0489384
0.0490792
0.0489385
0.0485201
0.0478293
0.046876
0.0456696
0.0442216
0.0425452
0.0406561
0.0385729
0.0363162
0.0339101
0.0313807
0.0287575
0.0260718
0.0233579
0.0206512
0.0179891
0.0154097
0.0129514
0.0106528
0.00855166
0.00668588
0.00565056
0.00380542
0.0025533
0.00162076
0.000964284
0.000515142
0.000230613
7.66678e-05
1.45621e-05
6.36879e-07
3.41561
0.0459485
0.0155923
0.0208314
0.0260444
0.0308228
0.0351547
0.0390448
0.0425053
0.0455512
0.0481975
0.0504583
0.0523457
0.05387
0.0550402
0.0558639
0.0563482
0.0564974
0.0563198
0.0558221
0.0550108
0.0538969
0.0524911
0.0508068
0.0488595
0.0466677
0.0442526
0.0416386
0.0388536
0.0359284
0.0328971
0.0297969
0.0266673
0.0235499
0.0204882
0.017526
0.0147076
0.0120775
0.00968005
0.00755212
0.0063061
0.00426601
0.00282154
0.00179061
0.00107891
0.000585899
0.000264707
8.88495e-05
1.68186e-05
6.62486e-07
3.424
0.0471927
0.0174748
0.0234345
0.0293335
0.0347535
0.0396751
0.0440987
0.0480345
0.0514973
0.0545029
0.057067
0.0592035
0.060925
0.0622422
0.0631644
0.0637005
0.0638537
0.0636378
0.0630589
0.0621248
0.0608479
0.0592408
0.0573186
0.0550992
0.0526034
0.0498559
0.0468845
0.043721
0.040401
0.0369638
0.0334516
0.0299099
0.0263864
0.0229302
0.0195908
0.0164174
0.0134588
0.0107635
0.00836918
0.00692381
0.00466855
0.00307001
0.00195669
0.00119124
0.000650632
0.000293537
9.95216e-05
1.91812e-05
7.68504e-07
3.43178
0.0483769
0.0192819
0.0259343
0.0324946
0.038534
0.0440262
0.0489676
0.0533652
0.0572332
0.0605882
0.0634467
0.0658247
0.0677366
0.069195
0.0702111
0.0707941
0.0709496
0.0706946
0.0700343
0.0689787
0.0675414
0.0657368
0.0635817
0.0610964
0.0583044
0.0552332
0.0519144
0.0483837
0.0446813
0.0408512
0.0369413
0.0330027
0.0290886
0.0252542
0.0215542
0.0180428
0.0147719
0.0117941
0.00915356
0.00754595
0.0050925
0.00335519
0.00215044
0.00131724
0.000660482
0.000286713
9.71921e-05
1.76648e-05
5.37504e-07
3.43881
0.0494726
0.0209662
0.0282646
0.0354431
0.0420616
0.0480892
0.0535171
0.0583493
0.0625986
0.066282
0.0694174
0.0720221
0.0741123
0.0757022
0.0768042
0.0774293
0.0775855
0.0772916
0.0765525
0.0753804
0.0737901
0.0717978
0.0694221
0.0666852
0.0636134
0.0602371
0.0565912
0.0527152
0.0486537
0.0444556
0.0401738
0.0358645
0.0315868
0.0274008
0.0233668
0.0195436
0.0159871
0.0127537
0.00989617
0.00814413
0.00553536
0.00366239
0.00235911
0.00144765
0.000724238
0.000322403
0.000111312
2.07489e-05
6.83568e-07
3.44499
0.050453
0.0224826
0.0303626
0.0380981
0.0452399
0.0517507
0.0576182
0.0628445
0.0674397
0.0714208
0.0748068
0.0776163
0.079867
0.0815748
0.0827523
0.0834146
0.0835693
0.0832382
0.0824257
0.081146
0.0794153
0.0772511
0.0746738
0.0717077
0.0683812
0.0647275
0.0607848
0.056596
0.0522098
0.0476793
0.0430621
0.0384196
0.0338154
0.0293147
0.0249826
0.020882
0.0170732
0.0136154
0.010567
0.00867747
0.00595171
0.00395015
0.00255129
0.00156853
0.000786884
0.000353285
0.000121636
2.33648e-05
8.01635e-07
3.4502
0.0512936
0.02379
0.0321709
0.0403863
0.0479798
0.0549073
0.061155
0.0667214
0.0716158
0.0758543
0.0794565
0.0824424
0.0848309
0.0866384
0.0878806
0.0885735
0.088725
0.0883598
0.0874819
0.0861072
0.0842532
0.0819386
0.0791854
0.0760196
0.0724717
0.0685775
0.0643774
0.059918
0.0552513
0.0504341
0.0455282
0.0405992
0.0357152
0.0309454
0.026359
0.0220227
0.0180002
0.0143534
0.0111424
0.00912505
0.00630787
0.0041921
0.0027123
0.00167272
0.000844177
0.000383416
0.000135245
2.684e-05
8.96818e-07
3.45436
0.051974
0.0248528
0.0336398
0.0422442
0.0502041
0.0574707
0.0640252
0.069867
0.0750042
0.0794514
0.0832286
0.0863567
0.0888559
0.0907428
0.092036
0.0927519
0.092899
0.0925044
0.0915713
0.0901177
0.0881617
0.0857233
0.0828257
0.0794964
0.0757677
0.071677
0.0672674
0.0625881
0.0576936
0.0526442
0.0475049
0.0423447
0.0372354
0.0322495
0.0274593
0.0229348
0.018742
0.014945
0.0116054
0.00948069
0.00659812
0.00438933
0.00284474
0.00176142
0.00089936
0.000413543
0.00015021
2.80727e-05
1.85395e-06
3.4574
0.0524778
0.0256427
0.0347299
0.0436215
0.0518514
0.0593678
0.0661488
0.0721918
0.0775064
0.0821069
0.0860121
0.0892437
0.0918221
0.0937663
0.0950952
0.095826
0.0959677
0.0955492
0.0945734
0.0930596
0.0910266
0.0884951
0.0854894
0.0820381
0.0781747
0.0739383
0.0693737
0.0645317
0.0594694
0.0542491
0.0489384
0.043609
0.0383351
0.0331919
0.0282539
0.0235932
0.0192779
0.0153734
0.0119433
0.00973678
0.00682376
0.00454626
0.00295057
0.00183403
0.000945204
0.000444163
0.000167983
3.34188e-05
2.49018e-06
3.45928
0.0527988
0.0261478
0.035426
0.0444995
0.0528998
0.0605732
0.0674959
0.0736639
0.0790877
0.0837827
0.0877668
0.0910614
0.0936875
0.0956653
0.0970142
0.0977519
0.0978878
0.0974521
0.0964473
0.0948933
0.0928099
0.0902181
0.0871429
0.0836136
0.0796645
0.0753357
0.070673
0.0657286
0.0605607
0.0552335
0.0498159
0.0443813
0.0390054
0.0337652
0.0287364
0.0239927
0.019603
0.0156343
0.0121514
0.00988494
0.00697832
0.00465793
0.00302605
0.00188497
0.000974673
0.000468302
0.00018817
5.48474e-05
5.83019e-06
3.45993
0.0529221
0.026343
0.0356932
0.0448338
0.0532955
0.0610242
0.067996
0.0742062
0.079665
0.0843897
0.0883985
0.0917117
0.0943508
0.0963364
0.0976884
0.0984247
0.0985546
0.0981092
0.0970905
0.0955192
0.0934149
0.0907989
0.0876966
0.0841376
0.0801564
0.0757936
0.0710954
0.0661144
0.0609094
0.055545
0.0500908
0.0446205
0.0392107
0.0339385
0.0288806
0.0241106
0.0196983
0.0157103
0.0122124
0.00990722
0.00704599
0.00470879
0.00305975
0.00190774
0.000991582
0.000479442
0.000198805
6.45912e-05
1.11558e-05
3.4593
0.052845
0.0262267
0.0355283
0.0446192
0.0530316
0.0607125
0.0676385
0.073806
0.0792262
0.0839157
0.0878932
0.0911798
0.0937966
0.0957643
0.0971023
0.0978289
0.097953
0.0975058
0.0964889
0.0949233
0.0928283
0.0902252
0.0871391
0.0835995
0.0796409
0.0753034
0.0706331
0.0656823
0.0605094
0.0551784
0.0497584
0.0443229
0.0389475
0.0337092
0.0286838
0.0239447
0.019561
0.0155992
0.0121241
0.00980197
0.00701377
0.0046859
0.00304369
0.00189623
0.000980962
0.000470915
0.000191312
5.6198e-05
6.61939e-06
3.45744
0.0525686
0.0257984
0.0349302
0.0438548
0.0521073
0.0596371
0.0664233
0.0724643
0.0777715
0.0823611
0.0862526
0.0894678
0.0920276
0.0939515
0.095259
0.0959677
0.096086
0.0956449
0.0946456
0.0931087
0.091053
0.0884994
0.0854726
0.0820015
0.0781198
0.0738667
0.0692876
0.0644333
0.0593612
0.0541339
0.0488191
0.0434884
0.038216
0.0330771
0.0281461
0.023495
0.0191915
0.015301
0.0118872
0.0095773
0.0068854
0.00459386
0.00298043
0.00185226
0.000947965
0.000446895
0.000172033
4.46709e-05
2.64175e-06
3.45442
0.052106
0.0250811
0.0339313
0.0425819
0.0505727
0.057857
0.0644173
0.0702549
0.0753808
0.0798116
0.0835678
0.0866711
0.0891425
0.0909995
0.0922612
0.0929446
0.0930576
0.09263
0.0916627
0.0901755
0.0881867
0.0857164
0.0827884
0.0794305
0.0756754
0.0715609
0.0671306
0.0624339
0.0575258
0.0524667
0.0473218
0.0421603
0.0370538
0.0320749
0.0272955
0.0227854
0.0186105
0.0148344
0.0115205
0.00925169
0.00667997
0.00445038
0.00288238
0.00178432
0.000901371
0.00041722
0.000153239
3.75577e-05
1.93944e-06
3.45028
0.0514607
0.0240793
0.0325392
0.0408119
0.048443
0.0553912
0.0616444
0.0672047
0.0720843
0.0763008
0.0798753
0.0828289
0.0851815
0.0869503
0.0881522
0.0888034
0.0889115
0.0885044
0.0875829
0.0861658
0.0842702
0.0819154
0.0791238
0.075922
0.0723411
0.0684169
0.0641911
0.0597102
0.0550266
0.0501977
0.0452854
0.0403553
0.0354755
0.0307152
0.0261431
0.0218259
0.0178269
0.0142078
0.0110312
0.0088302
0.00640883
0.00426633
0.00275785
0.00169948
0.000846873
0.000386319
0.00013739
2.76018e-05
9.60361e-07
3.44509
0.0506482
0.0228234
0.0307957
0.0385973
0.0457821
0.0523153
0.0581883
0.0634068
0.0679837
0.071938
0.0752904
0.0780611
0.080269
0.0819311
0.0830607
0.083674
0.0837774
0.083397
0.0825334
0.0812037
0.0794244
0.0772129
0.0745907
0.0715824
0.0682172
0.0645288
0.0605558
0.056342
0.0519364
0.0473923
0.0427679
0.0381242
0.0335253
0.029036
0.0247211
0.0206435
0.0168635
0.0134399
0.0104336
0.00832646
0.00607604
0.00404177
0.0026077
0.0016006
0.000788472
0.000355568
0.000123177
2.30165e-05
7.706e-07
3.43893
0.0496892
0.0213472
0.028748
0.0359992
0.042664
0.0487153
0.0541483
0.0589709
0.0631989
0.0668516
0.0699488
0.0725097
0.0745517
0.0760905
0.077139
0.0777093
0.0778085
0.0774597
0.0766637
0.075436
0.0737916
0.0717469
0.0693212
0.0665376
0.0634228
0.0600078
0.0563284
0.0524247
0.0483415
0.0441283
0.0398383
0.035528
0.0312561
0.0270828
0.0230679
0.0192704
0.0157468
0.0125516
0.00974263
0.00773933
0.00567931
0.00377254
0.00242861
0.00148646
0.000727519
0.000324967
0.000113073
2.0729e-05
6.56725e-07
3.4319
0.048607
0.0196909
0.0264522
0.0330894
0.0391767
0.044693
0.0496389
0.0540253
0.0578694
0.0611906
0.0640078
0.0663386
0.068199
0.0696025
0.0705615
0.0710858
0.0711806
0.0708671
0.0701461
0.0690313
0.0675363
0.0656759
0.0634677
0.0609325
0.0580946
0.0549822
0.0516276
0.0480672
0.0443416
0.0404954
0.0365766
0.0326366
0.0287284
0.0249071
0.0212273
0.0177432
0.0145068
0.0115685
0.00898034
0.00711356
0.0052363
0.00346454
0.00222202
0.00135919
0.000663872
0.00028932
9.90938e-05
1.81767e-05
5.40299e-07
3.42413
0.0474281
0.0178992
0.0239708
0.0299479
0.0354161
0.0403612
0.0447883
0.0487113
0.0521485
0.0551186
0.0576397
0.0597272
0.0613954
0.062656
0.0635193
0.0639952
0.0640859
0.0638099
0.0631685
0.0621738
0.0608376
0.0591732
0.0571962
0.0549255
0.0523826
0.0495926
0.0465843
0.0433901
0.040046
0.0365918
0.0330702
0.0295266
0.0260087
0.0225656
0.0192464
0.0161005
0.0131757
0.0105187
0.00817805
0.00647345
0.00478442
0.00315571
0.00201244
0.00122645
0.000668939
0.000300235
0.00010281
2.03204e-05
8.16914e-07
3.41575
0.0461813
0.0160194
0.0213701
0.0266598
0.031485
0.0358392
0.0397312
0.0431779
0.0461973
0.0488077
0.051025
0.0528633
0.0543343
0.055448
0.0562131
0.0566373
0.0567244
0.056487
0.0559273
0.0550556
0.0538827
0.0524198
0.0506812
0.0486828
0.0464438
0.0439864
0.0413354
0.0385195
0.03557
0.0325215
0.0294114
0.0262795
0.0231673
0.020118
0.0171751
0.0143829
0.0117849
0.009426
0.00735598
0.00584933
0.00436769
0.00288142
0.001829
0.00110709
0.000603131
0.000273081
9.19277e-05
1.74114e-05
6.93208e-07
3.40688
0.0448957
0.0141001
0.0187178
0.0233113
0.0274883
0.0312483
0.0346048
0.0375755
0.0401785
0.0424302
0.0443451
0.0459348
0.0472091
0.048176
0.0488424
0.0492146
0.0492955
0.0490971
0.0486188
0.0478698
0.0468595
0.0455981
0.0440974
0.0423716
0.0404369
0.0383125
0.03602
0.0335837
0.0310305
0.0283902
0.0256945
0.0229777
0.0202755
0.017625
0.0150637
0.0126305
0.010364
0.00830622
0.00650831
0.0051403
0.00394538
0.00263183
0.00166683
0.000999391
0.000539249
0.000242902
8.11492e-05
1.52672e-05
6.11997e-07
3.39767
0.0436005
0.0121892
0.0160812
0.0199877
0.0235283
0.0267077
0.0295424
0.0320507
0.0342494
0.0361534
0.0377747
0.0391229
0.0402057
0.0410292
0.041599
0.0419196
0.0419936
0.0418303
0.0414313
0.0408016
0.0399491
0.0388833
0.0376141
0.0361536
0.0345156
0.032716
0.0307734
0.0287079
0.0265423
0.0243015
0.0220123
0.0197033
0.0174044
0.0151468
0.0129624
0.0108836
0.00894327
0.00717614
0.00562411
0.00425271
0.00303156
0.00202653
0.00126766
0.000732553
0.000373418
0.00015461
4.53907e-05
6.60444e-06
2.09415e-07
3.38827
0.0423234
0.010332
0.0135238
0.0167703
0.0197023
0.0223294
0.0246694
0.0267401
0.0285568
0.030132
0.0314755
0.0325947
0.0334955
0.0341825
0.0346595
0.0349303
0.0349965
0.0348655
0.0345389
0.0340217
0.0333195
0.0324388
0.0313889
0.03018
0.0288235
0.0273326
0.0257224
0.0240099
0.0222136
0.020354
0.018453
0.016534
0.0146217
0.0127416
0.0109197
0.0091826
0.00755549
0.00606323
0.00474
0.00358132
0.00256582
0.00172937
0.00108834
0.000625587
0.000314966
0.000129438
3.73335e-05
5.44339e-06
1.83253e-07
3.37882
0.0410891
0.00857037
0.011103
0.013732
0.0160979
0.0182135
0.020097
0.0217646
0.0232295
0.0245017
0.0255888
0.0264961
0.0272281
0.0277878
0.028178
0.0284014
0.0284592
0.028357
0.0280963
0.0276808
0.027116
0.0264075
0.0255603
0.0245839
0.0234878
0.0222828
0.0209807
0.0195954
0.0181419
0.0166364
0.0150966
0.0135411
0.0119897
0.0104627
0.00898123
0.00756644
0.00623835
0.00501333
0.00391517
0.00295242
0.00212337
0.00144009
0.000909095
0.000522108
0.000262022
0.00010709
3.07712e-05
4.48563e-06
1.51206e-07
3.36947
0.0399181
0.00694006
0.0088691
0.010936
0.0127899
0.0144451
0.0159188
0.0172251
0.0183744
0.0193745
0.0202307
0.020947
0.021526
0.0219699
0.0222807
0.0224601
0.0225091
0.0224316
0.0222292
0.0219047
0.0214623
0.0209066
0.0202429
0.0194766
0.018615
0.0176676
0.0166436
0.0155539
0.0144101
0.0132249
0.0120122
0.0107864
0.00956292
0.0083574
0.00718607
0.00606561
0.00501219
0.00403799
0.00315816
0.00238358
0.00171917
0.00117092
0.000741634
0.000426556
0.000214093
8.73346e-05
2.50775e-05
3.65532e-06
1.23229e-07
3.36037
0.0388254
0.00547067
0.00686309
0.00843342
0.00983813
0.0110913
0.012208
0.0131993
0.0140734
0.0148356
0.0154896
0.0160377
0.0164818
0.0168231
0.0170629
0.0172026
0.0172425
0.0171858
0.0170336
0.0167879
0.0164522
0.0160298
0.0155248
0.0149423
0.0142877
0.0135661
0.0127861
0.0119558
0.0110841
0.0101806
0.00925573
0.00832053
0.00738647
0.00646538
0.00556924
0.00471034
0.00390122
0.00315173
0.00247188
0.00187057
0.00135379
0.000925951
0.000588842
0.000339747
0.000170904
6.97645e-05
2.00503e-05
2.9238e-06
9.85722e-08
3.35167
0.0378191
0.00418388
0.00511469
0.00626079
0.0072843
0.00819758
0.00901269
0.00973802
0.010379
0.0109393
0.0114208
0.0118253
0.0121536
0.0124065
0.0125848
0.0126895
0.0127207
0.0126806
0.0125703
0.0123911
0.0121456
0.0118362
0.011466
0.0110387
0.0105585
0.0100301
0.00945861
0.00884915
0.00820919
0.00754582
0.0068666
0.00617953
0.00549299
0.00481557
0.0041559
0.00352262
0.0029247
0.0023698
0.00186495
0.00141655
0.00102962
0.000707699
0.000452349
0.000262233
0.000132446
5.42074e-05
1.56125e-05
2.27883e-06
7.68351e-08
3.34349
0.0368975
0.00309324
0.00364197
0.00443909
0.00515106
0.00578726
0.0063565
0.00686441
0.00731438
0.00770845
0.00804785
0.00833334
0.00856547
0.00874466
0.00887139
0.00894623
0.00896943
0.00894236
0.00886583
0.0087408
0.00856902
0.00835229
0.00809281
0.00779312
0.00745618
0.00708535
0.00668439
0.00625749
0.00580924
0.00534363
0.00486682
0.00438439
0.00390216
0.00342612
0.00296228
0.00251651
0.00209482
0.0017027
0.001345
0.00102611
0.000749679
0.000518336
0.000333447
0.000194562
9.88595e-05
4.06465e-05
1.17473e-05
1.71741e-06
5.79161e-08
3.33599
0.0360465
0.0022036
0.00245069
0.00297333
0.00344148
0.00386098
0.00423754
0.00457448
0.00487368
0.00513618
0.0053626
0.00555332
0.00570858
0.00582865
0.00591378
0.00596433
0.00598049
0.00596313
0.00591284
0.00583023
0.00571647
0.0055728
0.00540066
0.00520178
0.00497812
0.00473191
0.00446568
0.00418222
0.00388456
0.00357596
0.00325994
0.0029399
0.00261959
0.00230328
0.00199496
0.00169843
0.00141755
0.0011559
0.000916683
0.000702731
0.000516418
0.000359541
0.000233135
0.000137198
7.03032e-05
2.91107e-05
8.4584e-06
1.23968e-06
4.18202e-08
3.32928
0.0352328
0.00151079
0.00153372
0.00185172
0.00213853
0.00239658
0.00262902
0.00283755
0.00302306
0.00318606
0.0033268
0.00344545
0.00354215
0.00361702
0.00367021
0.00370195
0.00371234
0.00370192
0.00367108
0.00362018
0.00354998
0.00346122
0.00335484
0.00323187
0.00309355
0.00294129
0.00277663
0.00260131
0.00241721
0.00222634
0.00203089
0.00183311
0.00163535
0.00144001
0.00124943
0.00106584
0.000891808
0.000729474
0.000580791
0.000447461
0.000330899
0.000232186
0.000151985
9.04223e-05
4.68604e-05
1.96177e-05
5.74782e-06
8.4583e-07
2.8552e-08
3.32351
0.0343975
0.00100195
0.000871507
0.00104674
0.00120685
0.00135156
0.00148232
0.00159986
0.00170456
0.00179665
0.00187619
0.00194331
0.00199802
0.00204043
0.00207061
0.00208867
0.0020947
0.00208898
0.00207174
0.00204319
0.00200376
0.00195386
0.00189404
0.00182488
0.00174707
0.00166142
0.00156878
0.00147016
0.00136659
0.00125924
0.0011493
0.00103806
0.000926843
0.000816975
0.000709819
0.000606693
0.000508863
0.000417518
0.00033373
0.000258372
0.000192281
0.000136043
9.00089e-05
5.42693e-05
2.85484e-05
1.215e-05
3.60837e-06
5.34701e-07
1.80705e-08
3.3188
0.0334426
0.000656022
0.000432816
0.000516578
0.000595023
0.000666212
0.000730672
0.000788685
0.000840395
0.00088588
0.000925192
0.000958361
0.000985419
0.0010064
0.00102134
0.00103031
0.00103334
0.00103057
0.00102212
0.0010081
0.000988708
0.000964163
0.000934723
0.000900685
0.000862392
0.000820234
0.000774645
0.000726107
0.000675142
0.000622315
0.000568223
0.000513495
0.000458779
0.000404733
0.000352019
0.000301286
0.000253151
0.000208192
0.00016693
0.000129807
9.71848e-05
6.93258e-05
4.63834e-05
2.83895e-05
1.52387e-05
6.64311e-06
2.01846e-06
3.03081e-07
1.02676e-08
3.31516
0.0322398
0.000444636
0.000176033
0.000207692
0.000239161
0.000267797
0.000293749
0.00031711
0.000337935
0.000356255
0.000372087
0.000385447
0.000396346
0.000404799
0.000410823
0.000414443
0.000415674
0.000414571
0.000411186
0.000405557
0.000397772
0.000387915
0.00037609
0.000362419
0.000347038
0.000330106
0.000311797
0.000292305
0.000271839
0.000250629
0.000228912
0.000206942
0.000184979
0.000163287
0.000142131
0.00012177
0.000102452
8.4407e-05
6.78411e-05
5.2931e-05
3.98171e-05
2.85992e-05
1.93314e-05
1.2016e-05
6.60084e-06
2.97318e-06
9.3892e-07
1.44994e-07
4.94354e-09
3.31197
0.0307584
0.000334795
5.22574e-05
5.91981e-05
6.8157e-05
7.63306e-05
8.37371e-05
9.04033e-05
9.63446e-05
0.000101571
0.000106087
0.000109897
0.000113005
0.000115416
0.000117134
0.000118166
0.000118518
0.000118203
0.000117238
0.000115634
0.000113416
0.000110607
0.000107238
0.000103342
9.89601e-05
9.41363e-05
8.89207e-05
8.33685e-05
7.75397e-05
7.14991e-05
6.5315e-05
5.90593e-05
5.28063e-05
4.66311e-05
4.0609e-05
3.48136e-05
2.93154e-05
2.41797e-05
1.94647e-05
1.52204e-05
1.14863e-05
8.29014e-06
5.64598e-06
3.55302e-06
1.99363e-06
9.31756e-07
3.12063e-07
5.13178e-08
1.78473e-09
3.30485
0.0296816
0.000295242
1.00878e-05
8.63666e-06
9.91557e-06
1.11045e-05
1.21818e-05
1.31512e-05
1.4015e-05
1.47747e-05
1.54311e-05
1.5985e-05
1.64366e-05
1.67869e-05
1.70364e-05
1.71862e-05
1.7237e-05
1.7191e-05
1.70505e-05
1.68169e-05
1.64942e-05
1.60855e-05
1.55954e-05
1.50289e-05
1.43916e-05
1.36903e-05
1.29319e-05
1.21247e-05
1.12774e-05
1.03993e-05
9.50045e-06
8.59124e-06
7.68248e-06
6.78509e-06
5.91001e-06
5.06793e-06
4.26908e-06
3.52291e-06
2.83792e-06
2.22133e-06
1.67884e-06
1.21443e-06
8.30103e-07
5.25665e-07
2.98495e-07
1.43132e-07
5.08641e-08
9.43409e-09
3.55812e-10
3.20999
0.0643501
0.000629884
6.49088e-06
3.53193e-07
3.35305e-07
3.74774e-07
4.11084e-07
4.43762e-07
4.72881e-07
4.98489e-07
5.20615e-07
5.39281e-07
5.54504e-07
5.6631e-07
5.74715e-07
5.79764e-07
5.81475e-07
5.79922e-07
5.75181e-07
5.67308e-07
5.56421e-07
5.42644e-07
5.26119e-07
5.07019e-07
4.85534e-07
4.61885e-07
4.36316e-07
4.091e-07
3.80528e-07
3.50918e-07
3.20607e-07
2.89945e-07
2.59294e-07
2.29025e-07
1.99507e-07
1.71097e-07
1.44145e-07
1.18967e-07
9.58505e-08
7.50407e-08
5.67307e-08
4.10554e-08
2.80822e-08
1.78037e-08
1.01325e-08
4.88681e-09
1.76772e-09
3.52767e-10
2.25939e-11
4.61688e-08
1.03348e-09
5.28239e-11
1.36428e-12
3.18733e-14
4.87046e-15
2.02943e-15
1.00782e-15
1e-15
1e-15
1e-15
1e-15
1e-15
1e-15
1.16997e-15
1.92323e-14
4.18265e-13
8.58732e-12
1.769e-10
4.04374e-09
9.25214e-07
5.1042e-08
2.48332e-09
1.04829e-10
3.12589e-12
1.13612e-14
3.25743e-15
2.49848e-15
1e-15
1e-15
1e-15
1e-15
1e-15
4.73024e-15
1.06916e-13
2.15461e-12
4.37164e-11
8.88595e-10
1.80386e-08
3.64396e-07
2.67753e-07
1.07729e-08
5.76438e-10
2.92567e-11
5.06501e-13
2.32012e-14
2.98382e-15
1.86598e-15
1e-15
1e-15
1e-15
1e-15
1e-15
1.41479e-15
2.21723e-14
4.70656e-13
9.51795e-12
1.93377e-10
3.96704e-09
9.04425e-08
1.37224e-11
2.13825e-10
1.06841e-09
2.93838e-09
6.03882e-09
1.04815e-08
1.62814e-08
2.33691e-08
3.16035e-08
4.07851e-08
5.06712e-08
6.0992e-08
7.14684e-08
8.18267e-08
9.18141e-08
1.0121e-07
1.09837e-07
1.17564e-07
1.24313e-07
1.30056e-07
1.34813e-07
1.38649e-07
1.41664e-07
1.4399e-07
1.4578e-07
1.47197e-07
1.48414e-07
1.49604e-07
1.50931e-07
1.52554e-07
1.54621e-07
1.5727e-07
1.6063e-07
1.6482e-07
1.69949e-07
1.76122e-07
1.83437e-07
1.91982e-07
2.01837e-07
2.13079e-07
2.25765e-07
2.39943e-07
2.55639e-07
2.72857e-07
2.91569e-07
3.11712e-07
3.33185e-07
3.55843e-07
3.79501e-07
4.03946e-07
4.28937e-07
4.54227e-07
4.79573e-07
5.04738e-07
5.29506e-07
5.53684e-07
5.7711e-07
5.99635e-07
6.21162e-07
6.41598e-07
6.60879e-07
6.78969e-07
6.9584e-07
7.11481e-07
7.25895e-07
7.39092e-07
7.51096e-07
7.61936e-07
7.71646e-07
7.80269e-07
7.8785e-07
7.94438e-07
8.00084e-07
8.0484e-07
8.08758e-07
8.11891e-07
8.1429e-07
8.16003e-07
8.17079e-07
8.17563e-07
8.17494e-07
8.16925e-07
8.15874e-07
8.14392e-07
8.12512e-07
8.10267e-07
8.07688e-07
8.04807e-07
8.01651e-07
7.98246e-07
7.94617e-07
7.9079e-07
7.86792e-07
7.82657e-07
7.78428e-07
7.74175e-07
7.70008e-07
7.66112e-07
7.62795e-07
7.60567e-07
2.16478e-10
5.72798e-09
3.08131e-08
8.62881e-08
1.78473e-07
3.10653e-07
4.8328e-07
6.94268e-07
9.394e-07
1.21272e-06