/*--------------------------------*- C++ -*----------------------------------*\
| =========                 |                                                 |
| \\      /  F ield         | foam-extend: Open Source CFD                    |
|  \\    /   O peration     | Version:     4.0                                |
|   \\  /    A nd           | Web:         http://www.foam-extend.org         |
|    \\/     M anipulation  |                                                 |
\*---------------------------------------------------------------------------*/
FoamFile
{
    version     2.0;
    format      ascii;
    class       volScalarField;
    location    "0.00200001";
    object      nut;
}
// * * * * * * * * * * * * * * * * * * * * * * * * * * * * * * * * * * * * * //

dimensions      [0 2 -1 0 0 0 0];

internalField   nonuniform List<scalar> 
28770
(
1.71063e-07
3.47938e-09
3.46583e-11
3.6148e-13
1.78149e-14
1.66458e-14
1.87378e-14
2.06845e-14
2.24534e-14
2.40452e-14
2.54599e-14
2.66974e-14
2.77573e-14
2.86396e-14
2.93444e-14
2.98723e-14
3.02245e-14
3.04028e-14
3.04065e-14
3.02453e-14
2.99162e-14
2.94267e-14
2.87824e-14
2.79901e-14
2.70579e-14
2.59951e-14
2.48123e-14
2.35216e-14
2.21364e-14
2.06713e-14
1.91422e-14
1.75662e-14
1.59612e-14
1.4346e-14
1.27397e-14
1.11618e-14
9.63155e-15
8.16788e-15
6.78878e-15
5.51094e-15
4.34943e-15
3.31695e-15
2.42343e-15
1.67529e-15
1.07496e-15
6.20238e-16
3.03738e-16
1.11915e-16
2.29925e-17
1.55129e-18
1.2534e-06
9.45122e-09
9.37777e-11
2.97962e-12
2.47702e-12
2.86637e-12
3.23291e-12
3.56846e-12
3.87326e-12
4.14751e-12
4.39124e-12
4.6043e-12
4.78674e-12
4.93852e-12
5.05963e-12
5.15023e-12
5.21044e-12
5.24065e-12
5.24067e-12
5.21226e-12
5.15484e-12
5.06976e-12
4.95792e-12
4.82053e-12
4.65904e-12
4.47502e-12
4.27033e-12
4.04708e-12
3.80753e-12
3.55436e-12
3.2902e-12
3.01811e-12
2.74111e-12
2.46254e-12
2.18567e-12
1.91384e-12
1.65045e-12
1.3987e-12
1.16168e-12
9.42259e-13
7.42993e-13
5.66035e-13
4.13035e-13
2.85061e-13
1.82468e-13
1.04818e-13
5.07445e-14
1.77637e-14
2.57456e-15
2.48763e-17
5.01684e-06
3.05777e-08
3.11293e-10
4.42701e-11
5.01074e-11
5.80982e-11
6.54904e-11
7.2263e-11
7.84186e-11
8.39573e-11
8.888e-11
9.31836e-11
9.68681e-11
9.9933e-11
1.02378e-10
1.04206e-10
1.0542e-10
1.06028e-10
1.06026e-10
1.05449e-10
1.04285e-10
1.0256e-10
1.00297e-10
9.75161e-11
9.42481e-11
9.05244e-11
8.63825e-11
8.18651e-11
7.70186e-11
7.18948e-11
6.65488e-11
6.10414e-11
5.54351e-11
4.97955e-11
4.41893e-11
3.86851e-11
3.33503e-11
2.82503e-11
2.34481e-11
1.90019e-11
1.49632e-11
1.13761e-11
8.27412e-12
5.67815e-12
3.59399e-12
2.00982e-12
8.98823e-13
2.42743e-13
1.88936e-14
1.21178e-16
1.49911e-05
7.5677e-08
8.85228e-10
3.17561e-10
3.72507e-10
4.30362e-10
4.84257e-10
5.33844e-10
5.79002e-10
6.19675e-10
6.5583e-10
6.87443e-10
7.14501e-10
7.36995e-10
7.54926e-10
7.68309e-10
7.77172e-10
7.8156e-10
7.81459e-10
7.77113e-10
7.68446e-10
7.55652e-10
7.38876e-10
7.18293e-10
6.94115e-10
6.66576e-10
6.35959e-10
6.02572e-10
5.66761e-10
5.28908e-10
4.89423e-10
4.48749e-10
4.07348e-10
3.65708e-10
3.24323e-10
2.83694e-10
2.44317e-10
2.0668e-10
1.7091e-10
1.27854e-10
9.33632e-11
6.61295e-11
4.50174e-11
2.90439e-11
1.73626e-11
9.24769e-12
4.07466e-12
9.36857e-13
5.47047e-14
3.28494e-16
3.58069e-05
1.58222e-07
2.38983e-09
1.40722e-09
1.64296e-09
1.88379e-09
2.11176e-09
2.32344e-09
2.51719e-09
2.69216e-09
2.84792e-09
2.98419e-09
3.10083e-09
3.19775e-09
3.27493e-09
3.33245e-09
3.37033e-09
3.38885e-09
3.38792e-09
3.3686e-09
3.33053e-09
3.27457e-09
3.20134e-09
3.11161e-09
3.00626e-09
2.88637e-09
2.7531e-09
2.60783e-09
2.45205e-09
2.2874e-09
2.1157e-09
1.93882e-09
1.73624e-09
1.40641e-09
1.12845e-09
8.95772e-10
7.02406e-10
5.42993e-10
4.12738e-10
3.07403e-10
2.23254e-10
1.57038e-10
1.05925e-10
6.74837e-11
3.96281e-11
2.05747e-11
8.75289e-12
2.13027e-12
1.13296e-13
6.6967e-16
7.20664e-05
2.93923e-07
6.10242e-09
4.62586e-09
5.31711e-09
6.03041e-09
6.71959e-09
7.36821e-09
7.96696e-09
8.51053e-09
8.99578e-09
9.42105e-09
9.78531e-09
1.00879e-08
1.03287e-08
1.05076e-08
1.0625e-08
1.06814e-08
1.06765e-08
1.06135e-08
1.04917e-08
1.03134e-08
1.00807e-08
9.7959e-09
9.46193e-09
9.08199e-09
8.65991e-09
8.19993e-09
7.47978e-09
6.23568e-09
5.16314e-09
4.2437e-09
3.46009e-09
2.79642e-09
2.23796e-09
1.77129e-09
1.38424e-09
1.0659e-09
8.06475e-10
5.97343e-10
4.30819e-10
3.00423e-10
2.00439e-10
1.25925e-10
7.26411e-11
3.68625e-11
1.52681e-11
3.83118e-12
1.97197e-13
1.15848e-15
0.000127867
5.00268e-07
1.44575e-08
1.24517e-08
1.40496e-08
1.57307e-08
1.73903e-08
1.8977e-08
2.04579e-08
2.18124e-08
2.30276e-08
2.40955e-08
2.50118e-08
2.57734e-08
2.63786e-08
2.68275e-08
2.71197e-08
2.72567e-08
2.72381e-08
2.70713e-08
2.67542e-08
2.62932e-08
2.56935e-08
2.49605e-08
2.41019e-08
2.18597e-08
1.85372e-08
1.56272e-08
1.30924e-08
1.08967e-08
9.0055e-09
7.38603e-09
6.00775e-09
4.84222e-09
3.86322e-09
3.04667e-09
2.37073e-09
1.81646e-09
1.36642e-09
1.00521e-09
7.19278e-10
4.96836e-10
3.27682e-10
2.03011e-10
1.15183e-10
5.74064e-11
2.33178e-11
6.06222e-12
3.07663e-13
1.80154e-15
0.000207231
7.97072e-07
3.15627e-08
2.90225e-08
3.21582e-08
3.55256e-08
3.8918e-08
4.22142e-08
4.53285e-08
4.82027e-08
5.07976e-08
5.30881e-08
5.50578e-08
5.66965e-08
5.79982e-08
5.896e-08
5.95811e-08
5.98628e-08
5.98045e-08
5.94208e-08
5.87083e-08
5.76798e-08
5.54793e-08
4.77845e-08
4.09337e-08
3.48694e-08
2.95311e-08
2.48584e-08
2.07911e-08
1.7271e-08
1.42425e-08
1.16526e-08
9.45093e-09
7.5917e-09
6.03358e-09
4.73782e-09
3.66921e-09
2.79608e-09
2.09016e-09
1.52642e-09
1.08293e-09
7.40582e-10
4.82798e-10
2.95162e-10
1.65021e-10
8.1036e-11
3.2449e-11
8.8313e-12
4.44814e-13
2.59878e-15
0.000313974
1.20356e-06
6.36802e-08
6.0617e-08
6.60802e-08
7.20577e-08
7.81895e-08
8.42388e-08
9.00251e-08
9.54167e-08
1.0032e-07
1.04669e-07
1.08421e-07
1.11547e-07
1.14028e-07
1.15853e-07
1.17019e-07
1.17523e-07
1.17365e-07
1.1657e-07
1.09693e-07
9.5426e-08
8.25662e-08
7.10486e-08
6.0796e-08
5.17231e-08
4.37406e-08
3.67579e-08
3.06851e-08
2.54349e-08
2.09199e-08
1.70648e-08
1.37949e-08
1.1041e-08
8.73902e-09
6.83039e-09
5.26194e-09
3.98579e-09
2.95914e-09
2.14414e-09
1.50758e-09
1.02052e-09
6.57746e-10
3.97169e-10
2.19173e-10
1.06283e-10
4.21036e-11
1.18488e-11
6.08002e-13
3.54526e-15
0.000390781
1.74323e-06
1.19651e-07
1.16048e-07
1.24738e-07
1.34402e-07
1.44473e-07
1.54545e-07
1.64291e-07
1.73459e-07
1.81857e-07
1.89348e-07
1.95833e-07
2.01241e-07
2.05529e-07
2.08665e-07
2.10634e-07
2.1143e-07
2.01071e-07
1.76773e-07
1.5453e-07
1.34335e-07
1.1613e-07
9.9826e-08
8.53163e-08
7.2481e-08
6.11958e-08
5.13309e-08
4.27544e-08
3.53484e-08
2.89937e-08
2.35771e-08
1.89922e-08
1.51402e-08
1.19297e-08
9.27693e-09
7.10585e-09
5.34787e-09
3.94159e-09
2.83267e-09
1.97336e-09
1.32212e-09
8.42688e-10
5.02999e-10
2.74326e-10
1.31577e-10
5.16643e-11
1.44384e-11
7.96046e-13
4.63553e-15
0.000374857
2.44247e-06
2.11218e-07
2.06869e-07
2.19703e-07
2.34201e-07
2.49513e-07
2.6501e-07
2.80164e-07
2.94542e-07
3.07806e-07
3.19699e-07
3.30027e-07
3.38649e-07
3.45466e-07
3.50413e-07
3.44758e-07
3.06618e-07
2.7101e-07
2.38135e-07
2.08029e-07
1.80692e-07
1.56049e-07
1.33985e-07
1.14356e-07
9.70029e-08
8.17459e-08
6.84222e-08
5.68582e-08
4.68856e-08
3.83427e-08
3.10743e-08
2.49362e-08
1.97932e-08
1.55205e-08
1.20037e-08
9.13863e-09
6.8312e-09
4.99697e-09
3.56095e-09
2.45742e-09
1.62934e-09
1.02701e-09
6.06359e-10
3.2716e-10
1.55375e-10
6.05305e-11
1.68085e-11
1.00678e-12
5.85719e-15
0.000365517
3.19121e-06
3.52474e-07
3.47221e-07
3.65106e-07
3.85547e-07
4.07388e-07
4.29716e-07
4.51746e-07
4.72808e-07
4.9236e-07
5.09971e-07
5.25301e-07
5.38096e-07
5.48174e-07
5.00602e-07
4.48043e-07
3.98324e-07
3.51883e-07
3.08993e-07
2.69712e-07
2.34047e-07
2.01904e-07
1.73136e-07
1.47549e-07
1.24938e-07
1.05086e-07
8.77677e-08
7.27549e-08
5.98266e-08
4.87707e-08
3.9384e-08
3.14766e-08
2.48705e-08
1.94017e-08
1.49194e-08
1.12862e-08
8.37757e-09
6.08116e-09
4.29678e-09
2.93681e-09
1.92633e-09
1.20036e-09
7.011e-10
3.746e-10
1.76394e-10
6.8263e-11
1.88424e-11
1.23976e-12
7.18948e-15
0.000361972
3.24251e-06
5.59854e-07
5.53452e-07
5.77147e-07
6.04493e-07
6.33978e-07
6.64377e-07
6.94596e-07
7.23679e-07
7.50815e-07
7.75338e-07
7.96713e-07
7.7065e-07
7.00078e-07
6.30881e-07
5.64379e-07
5.01457e-07
4.42687e-07
3.88413e-07
3.38723e-07
2.93622e-07
2.52991e-07
2.16631e-07
1.84322e-07
1.558e-07
1.30782e-07
1.0898e-07
9.01058e-08
7.38782e-08
6.00257e-08
4.82912e-08
3.84314e-08
3.02204e-08
2.34485e-08
1.79234e-08
1.34694e-08
9.92699e-09
7.15134e-09
5.01095e-09
3.39107e-09
2.19897e-09
1.35391e-09
7.81675e-10
4.13814e-10
1.93578e-10
7.46066e-11
2.05155e-11
1.50614e-12
8.74082e-15
0.000363917
3.34608e-06
7.668e-07
8.43279e-07
8.7314e-07
9.08008e-07
9.45918e-07
9.85283e-07
1.02465e-06
1.06273e-06
1.09839e-06
1.11663e-06
1.03355e-06
9.46858e-07
8.59635e-07
7.74157e-07
6.92054e-07
6.14411e-07
5.41942e-07
4.75049e-07
4.13846e-07
3.58319e-07
3.0832e-07
2.63624e-07
2.23942e-07
1.88942e-07
1.58273e-07
1.31579e-07
1.08502e-07
8.86929e-08
7.18168e-08
5.75535e-08
4.5602e-08
3.56813e-08
2.75315e-08
2.09131e-08
1.56088e-08
1.14211e-08
8.16997e-09
5.68314e-09
3.80415e-09
2.43432e-09
1.48275e-09
8.45033e-10
4.43249e-10
2.06334e-10
7.93034e-11
2.17595e-11
1.80628e-12
1.04024e-14
0.000371472
3.5054e-06
9.2215e-07
1.16266e-06
1.26987e-06
1.31249e-06
1.3591e-06
1.40779e-06
1.4567e-06
1.50418e-06
1.43619e-06
1.3439e-06
1.24264e-06
1.13727e-06
1.0315e-06
9.28047e-07
8.28827e-07
7.35121e-07
6.47766e-07
5.67207e-07
4.93554e-07
4.2679e-07
3.66737e-07
3.13104e-07
2.65529e-07
2.23609e-07
1.86918e-07
1.55022e-07
1.27489e-07
1.03896e-07
8.38354e-08
6.69211e-08
5.27879e-08
4.10954e-08
3.15269e-08
2.37929e-08
1.76296e-08
1.28012e-08
9.10613e-09
6.34468e-09
4.25033e-09
2.63208e-09
1.57579e-09
8.86927e-10
4.63468e-10
2.16438e-10
8.36521e-11
2.31489e-11
2.23801e-12
1.19676e-14
0.000385194
3.72782e-06
1.10298e-06
1.39512e-06
1.63424e-06
1.79093e-06
1.87294e-06
1.8921e-06
1.86138e-06
1.79322e-06
1.69859e-06
1.58667e-06
1.46479e-06
1.33866e-06
1.21256e-06
1.0896e-06
9.71967e-07
8.61091e-07
7.57912e-07
6.62861e-07
5.76076e-07
4.97508e-07
4.26909e-07
3.6392e-07
3.08103e-07
2.58973e-07
2.16023e-07
1.78734e-07
1.46594e-07
1.19101e-07
9.5773e-08
7.61503e-08
5.98005e-08
4.63183e-08
3.53278e-08
2.64829e-08
1.94663e-08
1.39886e-08
9.78172e-09
6.82105e-09
4.68644e-09
3.14558e-09
1.83942e-09
1.03659e-09
5.53403e-10
2.68041e-10
1.10228e-10
3.42321e-11
6.19385e-12
5.18353e-14
0.000406198
4.02595e-06
1.31523e-06
1.6639e-06
1.9417e-06
2.11921e-06
2.20729e-06
2.22133e-06
2.17761e-06
2.09131e-06
1.97551e-06
1.8409e-06
1.69593e-06
1.54705e-06
1.39903e-06
1.25532e-06
1.11828e-06
9.89453e-07
8.69795e-07
7.59765e-07
6.59463e-07
5.68774e-07
4.87378e-07
4.14835e-07
3.50622e-07
2.94166e-07
2.4487e-07
2.02129e-07
1.65345e-07
1.33934e-07
1.07336e-07
8.5016e-08
6.64708e-08
5.12284e-08
3.88511e-08
2.89345e-08
2.1108e-08
1.50349e-08
1.04089e-08
7.07857e-09
5.28919e-09
3.19315e-09
1.86546e-09
1.04138e-09
5.55133e-10
2.68885e-10
1.09471e-10
3.37605e-11
6.00229e-12
5.37648e-14
0.00043639
4.41996e-06
1.56737e-06
1.97681e-06
2.29226e-06
2.4858e-06
2.57341e-06
2.57556e-06
2.5127e-06
2.40309e-06
2.26199e-06
2.10154e-06
1.93112e-06
1.75775e-06
1.58659e-06
1.42125e-06
1.26423e-06
1.11702e-06
9.80661e-07
8.55521e-07
7.41635e-07
6.38808e-07
5.46634e-07
4.64581e-07
3.9203e-07
3.28316e-07
2.7275e-07
2.24637e-07
1.83291e-07
1.48045e-07
1.18258e-07
9.33204e-08
7.26568e-08
5.57286e-08
4.20353e-08
3.11153e-08
2.25474e-08
1.59541e-08
1.10051e-08
7.37683e-09
5.31255e-09
3.22563e-09
1.82944e-09
1.0083e-09
5.34281e-10
2.57534e-10
1.01891e-10
3.12753e-11
5.58572e-12
6.25494e-14
0.000478949
4.94193e-06
1.87161e-06
2.34418e-06
2.6924e-06
2.89285e-06
2.96986e-06
2.95084e-06
2.86118e-06
2.72239e-06
2.55169e-06
2.36239e-06
2.16451e-06
1.96541e-06
1.77038e-06
1.58308e-06
1.40595e-06
1.24047e-06
1.08762e-06
9.47627e-07
8.20455e-07
7.05802e-07
6.03161e-07
5.11894e-07
4.31289e-07
3.60582e-07
2.9899e-07
2.45726e-07
2.0002e-07
1.6112e-07
1.28308e-07
1.00898e-07
7.82449e-08
5.97439e-08
4.48332e-08
3.29942e-08
2.3753e-08
1.66813e-08
1.13982e-08
7.51197e-09
5.35353e-09
3.22507e-09
1.80192e-09
9.79249e-10
5.06355e-10
1.94814e-10
7.79058e-11
2.32491e-11
3.84843e-12
3.20674e-14
0.000539287
5.64399e-06
2.24586e-06
2.77918e-06
3.1484e-06
3.34037e-06
3.39226e-06
3.34025e-06
3.21501e-06
3.04092e-06
2.83664e-06
2.61608e-06
2.38945e-06
2.16408e-06
1.94515e-06
1.73619e-06
1.53949e-06
1.35638e-06
1.18772e-06
1.03359e-06
8.93813e-07
7.67986e-07
6.55485e-07
5.55569e-07
4.67419e-07
3.90177e-07
3.22967e-07
2.64916e-07
2.15167e-07
1.72891e-07
1.37292e-07
1.07617e-07
8.31494e-08
6.32234e-08
4.72174e-08
3.45588e-08
2.47229e-08
1.72343e-08
1.167e-08
7.61062e-09
5.37751e-09
3.21276e-09
1.77305e-09
9.50568e-10
4.8562e-10
1.94871e-10
7.1926e-11
2.1149e-11
3.46947e-12
4.11264e-14
0.000627141
6.61421e-06
2.71634e-06
3.29716e-06
3.66387e-06
3.8236e-06
3.83116e-06
3.7325e-06
3.56281e-06
3.34806e-06
3.10727e-06
2.85417e-06
2.59857e-06
2.3474e-06
2.10546e-06
1.87592e-06
1.66086e-06
1.46136e-06
1.27811e-06
1.11098e-06
9.59693e-07
8.2369e-07
7.02238e-07
5.94488e-07
4.99523e-07
4.16392e-07
3.44131e-07
2.81786e-07
2.2842e-07
1.83133e-07
1.4506e-07
1.13378e-07
8.7313e-08
6.6139e-08
4.91809e-08
3.58157e-08
2.5473e-08
1.76361e-08
1.18454e-08
7.66793e-09
5.36997e-09
3.17758e-09
1.72926e-09
9.1073e-10
4.53671e-10
1.74526e-10
6.27101e-11
1.74951e-11
2.81085e-12
4.85585e-14
0.000761589
8.00872e-06
3.32023e-06
3.91152e-06
4.23393e-06
4.32826e-06
4.26934e-06
4.11081e-06
3.88947e-06
3.63079e-06
3.35259e-06
3.06744e-06
2.78418e-06
2.50893e-06
2.24586e-06
1.99774e-06
1.76627e-06
1.55223e-06
1.35611e-06
1.1776e-06
1.01626e-06
8.71401e-07
7.42186e-07
6.2766e-07
5.26814e-07
4.38612e-07
3.62012e-07
2.95985e-07
2.39527e-07
1.91673e-07
1.51495e-07
1.18114e-07
9.07022e-08
6.84819e-08
5.07308e-08
3.67823e-08
2.60262e-08
1.79104e-08
1.19442e-08
7.69545e-09
5.34064e-09
3.11847e-09
1.67089e-09
8.62797e-10
4.19028e-10
1.54331e-10
5.36011e-11
1.44039e-11
2.17861e-12
5.52061e-14
0.000985015
1.0117e-05
4.10193e-06
4.61985e-06
4.83384e-06
4.82441e-06
4.67931e-06
4.45207e-06
4.17639e-06
3.87429e-06
3.56079e-06
3.24643e-06
2.9386e-06
2.64241e-06
2.36127e-06
2.09743e-06
1.85222e-06
1.62609e-06
1.41936e-06
1.23148e-06
1.0619e-06
9.09816e-07
7.74279e-07
6.54248e-07
5.48634e-07
4.56329e-07
3.76226e-07
3.07232e-07
2.4829e-07
1.98377e-07
1.56517e-07
1.21784e-07
9.3303e-08
7.02571e-08
5.18843e-08
3.74823e-08
2.64087e-08
1.80825e-08
1.19875e-08
7.70637e-09
5.30337e-09
3.05089e-09
1.61142e-09
8.16709e-10
3.87438e-10
1.37511e-10
4.58855e-11
1.15561e-11
1.44724e-12
6.41789e-14
0.00141083
1.34607e-05
5.07644e-06
5.36959e-06
5.4024e-06
5.26121e-06
5.02268e-06
4.72823e-06
4.40289e-06
4.06309e-06
3.72014e-06
3.38208e-06
3.05475e-06
2.74218e-06
2.44712e-06
2.17131e-06
1.91569e-06
1.68049e-06
1.4658e-06
1.27095e-06
1.09526e-06
9.37834e-07
7.97632e-07
6.73548e-07
5.64432e-07
4.6912e-07
3.86454e-07
3.15296e-07
2.54545e-07
2.03138e-07
1.60061e-07
1.24352e-07
9.51046e-08
7.14693e-08
5.2656e-08
3.79357e-08
2.66424e-08
1.81735e-08
1.19939e-08
7.71082e-09
5.27201e-09
2.99119e-09
1.56291e-09
7.7974e-10
3.62701e-10
1.25028e-10
4.0605e-11
9.70142e-12
1.06122e-12
3.49767e-14
0.00244465
1.85763e-05
6.09682e-06
6.01279e-06
5.83905e-06
5.57553e-06
5.26e-06
4.91416e-06
4.55267e-06
4.18634e-06
3.82319e-06
3.46922e-06
3.12895e-06
2.80565e-06
2.50154e-06
2.21799e-06
1.95569e-06
1.71467e-06
1.49493e-06
1.29566e-06
1.1161e-06
9.55292e-07
8.12152e-07
6.85521e-07
5.74209e-07
4.77015e-07
3.92749e-07
3.20244e-07
2.58368e-07
2.06035e-07
1.62206e-07
1.25896e-07
9.6179e-08
7.21839e-08
5.31035e-08
3.81922e-08
2.67689e-08
1.82179e-08
1.19937e-08
7.72029e-09
5.2417e-09
2.94782e-09
1.53085e-09
7.55366e-10
3.4644e-10
1.17395e-10
3.76139e-11
9.20632e-12
1.46632e-12
6.38814e-14
0.00439402
2.23256e-05
6.59973e-06
6.28522e-06
6.01185e-06
5.6958e-06
5.34917e-06
4.98327e-06
4.60792e-06
4.23149e-06
3.86072e-06
3.50079e-06
3.15571e-06
2.82843e-06
2.52096e-06
2.23456e-06
1.96981e-06
1.72667e-06
1.5051e-06
1.30423e-06
1.12328e-06
9.61276e-07
8.17094e-07
6.89568e-07
5.77488e-07
4.79641e-07
3.94824e-07
3.21858e-07
2.596e-07
2.06956e-07
1.62877e-07
1.2637e-07
9.64991e-08
7.23893e-08
5.32249e-08
3.82552e-08
2.67934e-08
1.8219e-08
1.19817e-08
7.71802e-09
5.22807e-09
2.92537e-09
1.51663e-09
7.44426e-10
3.39102e-10
1.15958e-10
3.66241e-11
9.27021e-12
1.74001e-12
1.92844e-13
0.00244466
1.85926e-05
6.1152e-06
6.03015e-06
5.85476e-06
5.58943e-06
5.2721e-06
4.92454e-06
4.56145e-06
4.19367e-06
3.82926e-06
3.47421e-06
3.13302e-06
2.80892e-06
2.50413e-06
2.22e-06
1.95723e-06
1.71582e-06
1.49576e-06
1.29622e-06
1.11645e-06
9.55481e-07
8.12215e-07
6.85491e-07
5.74113e-07
4.76874e-07
3.92581e-07
3.20063e-07
2.58186e-07
2.0586e-07
1.62044e-07
1.25751e-07
9.60523e-08
7.20768e-08
5.30155e-08
3.81223e-08
2.67154e-08
1.81788e-08
1.19668e-08
7.70289e-09
5.22481e-09
2.92509e-09
1.51957e-09
7.46984e-10
3.40884e-10
1.18729e-10
3.70666e-11
9.16684e-12
1.49689e-12
7.92006e-14
0.00141085
1.3484e-05
5.10727e-06
5.40055e-06
5.43129e-06
5.28717e-06
5.04547e-06
4.74785e-06
4.41951e-06
4.07699e-06
3.73165e-06
3.39154e-06
3.06242e-06
2.74832e-06
2.45195e-06
2.17505e-06
1.91853e-06
1.68256e-06
1.46727e-06
1.27192e-06
1.09584e-06
9.38106e-07
7.97671e-07
6.73416e-07
5.6418e-07
4.6879e-07
3.86079e-07
3.14905e-07
2.54157e-07
2.02768e-07
1.59721e-07
1.24049e-07
9.48415e-08
7.12473e-08
5.24739e-08
3.7791e-08
2.65315e-08
1.8092e-08
1.19373e-08
7.67462e-09
5.23744e-09
2.94705e-09
1.53961e-09
7.62718e-10
3.51442e-10
1.25491e-10
3.92833e-11
9.40855e-12
1.40668e-12
3.27918e-14
0.000985033
1.01427e-05
4.13961e-06
4.65989e-06
4.87248e-06
4.85983e-06
4.71076e-06
4.47933e-06
4.19958e-06
3.89375e-06
3.57694e-06
3.25967e-06
2.9493e-06
2.65094e-06
2.36795e-06
2.10256e-06
1.85607e-06
1.62887e-06
1.42128e-06
1.23271e-06
1.06258e-06
9.10075e-07
7.74218e-07
6.53954e-07
5.48179e-07
4.55774e-07
3.75616e-07
3.06607e-07
2.47678e-07
1.978e-07
1.55989e-07
1.21314e-07
9.28968e-08
6.99145e-08
5.16033e-08
3.72586e-08
2.62367e-08
1.79556e-08
1.18989e-08
7.64997e-09
5.25734e-09
2.98929e-09
1.57717e-09
7.91637e-10
3.7081e-10
1.35976e-10
4.39062e-11
1.08761e-11
1.80871e-12
6.09626e-14
0.000761607
8.0348e-06
3.3606e-06
3.95629e-06
4.27855e-06
4.37005e-06
4.30696e-06
4.14371e-06
3.91765e-06
3.65454e-06
3.37233e-06
3.08362e-06
2.79723e-06
2.5193e-06
2.25395e-06
2.00391e-06
1.77085e-06
1.55549e-06
1.35833e-06
1.17896e-06
1.01695e-06
8.71577e-07
7.41976e-07
6.27172e-07
5.26138e-07
4.37821e-07
3.61165e-07
2.95128e-07
2.38696e-07
1.90893e-07
1.50785e-07
1.17484e-07
9.01572e-08
6.80223e-08
5.03533e-08
3.6481e-08
2.57936e-08
1.7738e-08
1.18231e-08
7.61865e-09
5.27939e-09
3.04629e-09
1.62898e-09
8.31736e-10
3.98002e-10
1.49876e-10
5.08742e-11
1.36061e-11
2.00578e-12
5.63762e-14
0.000627159
6.6398e-06
2.75752e-06
3.34419e-06
3.71188e-06
3.86943e-06
3.87296e-06
3.76944e-06
3.59469e-06
3.37507e-06
3.12978e-06
2.87263e-06
2.61347e-06
2.35922e-06
2.11466e-06
1.88291e-06
1.66603e-06
1.46501e-06
1.28055e-06
1.11244e-06
9.60376e-07
8.23784e-07
7.0189e-07
5.93826e-07
4.98651e-07
4.15394e-07
3.43075e-07
2.80724e-07
2.27395e-07
1.82174e-07
1.44187e-07
1.12603e-07
8.66418e-08
6.55716e-08
4.87133e-08
3.54408e-08
2.51821e-08
1.74195e-08
1.16927e-08
7.57114e-09
5.2928e-09
3.10611e-09
1.68626e-09
8.77722e-10
4.30348e-10
1.66341e-10
5.949e-11
1.64485e-11
2.52554e-12
4.67835e-14
0.000539304
5.66869e-06
2.28667e-06
2.82671e-06
3.19781e-06
3.38822e-06
3.43643e-06
3.37965e-06
3.24926e-06
3.07009e-06
2.86102e-06
2.63611e-06
2.40563e-06
2.17691e-06
1.95513e-06
1.74376e-06
1.54506e-06
1.36028e-06
1.1903e-06
1.03509e-06
8.94473e-07
7.68002e-07
6.55021e-07
5.54762e-07
4.66384e-07
3.89008e-07
3.21738e-07
2.63686e-07
2.13981e-07
1.71781e-07
1.36282e-07
1.06718e-07
8.23692e-08
6.25615e-08
4.66694e-08
3.41167e-08
2.43774e-08
1.69752e-08
1.1485e-08
7.49254e-09
5.27261e-09
3.15027e-09
1.73563e-09
9.20761e-10
4.63066e-10
1.83864e-10
6.85673e-11
2.00985e-11
3.20936e-12
3.95675e-14
0.000478965
4.96543e-06
1.91131e-06
2.39099e-06
2.74168e-06
2.9411e-06
3.01484e-06
2.9913e-06
2.89657e-06
2.75265e-06
2.57706e-06
2.38329e-06
2.18142e-06
1.97883e-06
1.7808e-06
1.59098e-06
1.41175e-06
1.24451e-06
1.09027e-06
9.49141e-07
8.21082e-07
7.05749e-07
6.02602e-07
5.10977e-07
4.30132e-07
3.59285e-07
2.97631e-07
2.44369e-07
1.98712e-07
1.59895e-07
1.2719e-07
9.99018e-08
7.73769e-08
5.90041e-08
4.4217e-08
3.24937e-08
2.33586e-08
1.63819e-08
1.11802e-08
7.36981e-09
5.22736e-09
3.16894e-09
1.76618e-09
9.51602e-10
4.88225e-10
1.94929e-10
7.56836e-11
2.2667e-11
3.75076e-12
3.23863e-14
0.000436407
4.442e-06
1.60544e-06
2.02205e-06
2.34027e-06
2.53319e-06
2.61792e-06
2.61584e-06
2.5481e-06
2.43349e-06
2.28755e-06
2.12263e-06
1.9482e-06
1.77133e-06
1.59714e-06
1.42924e-06
1.27008e-06
1.12108e-06
9.83312e-07
8.57008e-07
7.42219e-07
6.38699e-07
5.4601e-07
4.63589e-07
3.90794e-07
3.26938e-07
2.7131e-07
2.23199e-07
1.81903e-07
1.46744e-07
1.17068e-07
9.22565e-08
7.17258e-08
5.4931e-08
4.13668e-08
3.05683e-08
2.21122e-08
1.56185e-08
1.07547e-08
7.20835e-09
5.16518e-09
3.16613e-09
1.78558e-09
9.75077e-10
5.09787e-10
2.4903e-10
9.49937e-11
2.91782e-11
5.31303e-12
6.78121e-14
0.000406214
4.04635e-06
1.35126e-06
1.70692e-06
1.98759e-06
2.16474e-06
2.25027e-06
2.26039e-06
2.21208e-06
2.12098e-06
2.00052e-06
1.86158e-06
1.7127e-06
1.56038e-06
1.4094e-06
1.26316e-06
1.12402e-06
9.9343e-07
8.72378e-07
7.61198e-07
6.60001e-07
5.68625e-07
4.86717e-07
4.1381e-07
3.49353e-07
2.92755e-07
2.43396e-07
2.00657e-07
1.63923e-07
1.32598e-07
1.0611e-07
8.39161e-08
6.55042e-08
5.0396e-08
3.81491e-08
2.83552e-08
2.06419e-08
1.46707e-08
1.01357e-08
6.89472e-09
5.11079e-09
3.14935e-09
1.80776e-09
1.00121e-09
5.32124e-10
2.56726e-10
1.03596e-10
3.1825e-11
5.62892e-12
5.62974e-14
0.000385209
3.74635e-06
1.13666e-06
1.43543e-06
1.67734e-06
1.83382e-06
1.91354e-06
1.92909e-06
1.89409e-06
1.82144e-06
1.72242e-06
1.6064e-06
1.48081e-06
1.35141e-06
1.22247e-06
1.0971e-06
9.77453e-07
8.64887e-07
7.60368e-07
6.64209e-07
5.76564e-07
4.97333e-07
4.2624e-07
3.62899e-07
3.06846e-07
2.57577e-07
2.14565e-07
1.77277e-07
1.45183e-07
1.17772e-07
9.45497e-08
7.50483e-08
5.88274e-08
4.54757e-08
3.46127e-08
2.58883e-08
1.89839e-08
1.36094e-08
9.50097e-09
6.6399e-09
4.83043e-09
3.10048e-09
1.85117e-09
1.03879e-09
5.55355e-10
2.69304e-10
1.10169e-10
3.39644e-11
6.01317e-12
4.97555e-14
0.000371487
3.52187e-06
9.53247e-07
1.19989e-06
1.3069e-06
1.3472e-06
1.3916e-06
1.43811e-06
1.48487e-06
1.5302e-06
1.45832e-06
1.36224e-06
1.25754e-06
1.14914e-06
1.04073e-06
9.35035e-07
8.33933e-07
7.3865e-07
6.50044e-07
5.6845e-07
4.9399e-07
4.26605e-07
3.66087e-07
3.12122e-07
2.64324e-07
2.22271e-07
1.85521e-07
1.53623e-07
1.26132e-07
1.02613e-07
8.26511e-08
6.585e-08
5.1838e-08
4.02683e-08
3.08208e-08
2.32019e-08
1.71466e-08
1.24188e-08
8.82123e-09
6.16933e-09
4.14528e-09
2.55996e-09
1.53225e-09
8.62363e-10
4.52614e-10
2.11938e-10
8.17286e-11
2.27073e-11
2.1823e-12
1.16424e-14
0.000363932
3.36033e-06
7.95118e-07
8.72983e-07
9.01131e-07
9.34367e-07
9.70696e-07
1.0085e-06
1.0463e-06
1.0828e-06
1.11685e-06
1.13323e-06
1.04704e-06
9.57604e-07
8.68e-07
7.80491e-07
6.96681e-07
6.17608e-07
5.44002e-07
4.76169e-07
4.14231e-07
3.58137e-07
3.07713e-07
2.62713e-07
2.22825e-07
1.87702e-07
1.56976e-07
1.30277e-07
1.07236e-07
8.74936e-08
7.07056e-08
5.65445e-08
4.47027e-08
3.48947e-08
2.68559e-08
2.03444e-08
1.51408e-08
1.10457e-08
7.87986e-09
5.48666e-09
3.68606e-09
2.35711e-09
1.43834e-09
8.2267e-10
4.33176e-10
2.01795e-10
7.76731e-11
2.12845e-11
1.76496e-12
1.0188e-14
0.000361986
3.25432e-06
5.82319e-07
5.74797e-07
5.97364e-07
6.23636e-07
6.52062e-07
6.81401e-07
7.10539e-07
7.38507e-07
7.64491e-07
7.87825e-07
8.07973e-07
7.80117e-07
7.07448e-07
6.36463e-07
5.68459e-07
5.04275e-07
4.44504e-07
3.89397e-07
3.39057e-07
2.93454e-07
2.52447e-07
2.15815e-07
1.83322e-07
1.54688e-07
1.29618e-07
1.07809e-07
8.89638e-08
7.27927e-08
5.90168e-08
4.73712e-08
3.7608e-08
2.94964e-08
2.28236e-08
1.73947e-08
1.30331e-08
9.57679e-09
6.8766e-09
4.81062e-09
3.25732e-09
2.11332e-09
1.30395e-09
7.54002e-10
3.99917e-10
1.8717e-10
7.21604e-11
1.98157e-11
1.45146e-12
8.40634e-15
0.000365531
3.20039e-06
3.67734e-07
3.61815e-07
3.79017e-07
3.98801e-07
4.19981e-07
4.4163e-07
4.62951e-07
4.8327e-07
5.02039e-07
5.18829e-07
5.33306e-07
5.45221e-07
5.54392e-07
5.05373e-07
4.5153e-07
4.00737e-07
3.53438e-07
3.09835e-07
2.69999e-07
2.33903e-07
2.01436e-07
1.72433e-07
1.46686e-07
1.23977e-07
1.04077e-07
8.67502e-08
7.17602e-08
5.88788e-08
4.7886e-08
3.85744e-08
3.07486e-08
2.42274e-08
1.88436e-08
1.44443e-08
1.08914e-08
8.05955e-09
5.83135e-09
4.10928e-09
2.80498e-09
1.83911e-09
1.14658e-09
6.6961e-10
3.58057e-10
1.6867e-10
6.52754e-11
1.79963e-11
1.18219e-12
6.85094e-15
0.000374872
2.44727e-06
2.21001e-07
2.1631e-07
2.28773e-07
2.42904e-07
2.57838e-07
2.7293e-07
2.87644e-07
3.01552e-07
3.14311e-07
3.25668e-07
3.3543e-07
3.43466e-07
3.49677e-07
3.54002e-07
3.47643e-07
3.08614e-07
2.723e-07
2.38837e-07
2.08271e-07
1.80578e-07
1.55665e-07
1.33404e-07
1.13642e-07
9.62048e-08
8.09058e-08
6.75729e-08
5.60256e-08
4.60897e-08
3.75972e-08
3.03894e-08
2.4318e-08
1.92446e-08
1.50422e-08
1.15942e-08
8.79551e-09
6.55223e-09
4.77665e-09
3.39323e-09
2.33604e-09
1.54634e-09
9.73648e-10
5.74156e-10
3.09701e-10
1.46981e-10
5.71833e-11
1.58382e-11
9.4532e-13
5.48013e-15
0.000390797
1.74493e-06
1.25515e-07
1.21781e-07
1.30299e-07
1.39784e-07
1.49656e-07
1.59504e-07
1.68998e-07
1.77884e-07
1.85976e-07
1.93135e-07
1.99269e-07
2.04309e-07
2.08215e-07
2.10957e-07
2.12529e-07
2.12913e-07
2.02103e-07
1.7734e-07
1.5473e-07
1.34252e-07
1.15831e-07
9.93697e-08
8.47514e-08
7.18488e-08
6.05281e-08
5.06533e-08
4.20881e-08
3.47091e-08
2.8393e-08
2.3023e-08
1.849e-08
1.46927e-08
1.15378e-08
8.9398e-09
6.82155e-09
5.11443e-09
3.75551e-09
2.6893e-09
1.86752e-09
1.24785e-09
7.93505e-10
4.72602e-10
2.57324e-10
1.23145e-10
4.82155e-11
1.34231e-11
7.36618e-13
4.27166e-15
0.000313987
1.20346e-06
6.69304e-08
6.38503e-08
6.92531e-08
7.51576e-08
8.11979e-08
8.7134e-08
9.27851e-08
9.80205e-08
1.02749e-07
1.06908e-07
1.10456e-07
1.13367e-07
1.15624e-07
1.17219e-07
1.18149e-07
1.1841e-07
1.18018e-07
1.16978e-07
1.09855e-07
9.53718e-08
8.23481e-08
7.07104e-08
6.03742e-08
5.12479e-08
4.32368e-08
3.62452e-08
3.01793e-08
2.49479e-08
2.04607e-08
1.66397e-08
1.34081e-08
1.06947e-08
8.43431e-09
6.56706e-09
5.03866e-09
3.80089e-09
2.81027e-09
2.02806e-09
1.42049e-09
9.58133e-10
6.15473e-10
3.70442e-10
2.03801e-10
9.84658e-11
3.88479e-11
1.08791e-11
5.55033e-13
3.21985e-15
0.000207245
7.9613e-07
3.31978e-08
3.069e-08
3.38175e-08
3.71637e-08
4.05201e-08
4.37647e-08
4.68126e-08
4.96071e-08
5.21109e-08
5.43008e-08
5.61621e-08
5.76859e-08
5.88677e-08
5.97055e-08
6.01998e-08
6.03509e-08
6.0166e-08
5.96501e-08
5.8809e-08
5.76539e-08
5.53326e-08
4.75507e-08
4.06391e-08
3.45352e-08
2.91751e-08
2.44947e-08
2.04309e-08
1.69231e-08
1.39131e-08
1.13465e-08
9.17132e-09
7.34036e-09
5.81136e-09
4.54483e-09
3.50468e-09
2.65886e-09
1.97863e-09
1.43846e-09
1.01599e-09
6.91787e-10
4.49064e-10
2.7337e-10
1.52175e-10
7.43619e-11
2.96203e-11
8.01153e-12
4.00571e-13
2.325e-15
0.000127877
4.99116e-07
1.51839e-08
1.32208e-08
1.4827e-08
1.65066e-08
1.81548e-08
1.97207e-08
2.11722e-08
2.24901e-08
2.36626e-08
2.4683e-08
2.55478e-08
2.62546e-08
2.68026e-08
2.7192e-08
2.74235e-08
2.74977e-08
2.74182e-08
2.71879e-08
2.68089e-08
2.62869e-08
2.56276e-08
2.48375e-08
2.39244e-08
2.16436e-08
1.83055e-08
1.53893e-08
1.28558e-08
1.06673e-08
8.78749e-09
7.18271e-09
5.82128e-09
4.67389e-09
3.71372e-09
2.91616e-09
2.25884e-09
1.72252e-09
1.28943e-09
9.43851e-10
6.71977e-10
4.61814e-10
3.03025e-10
1.86749e-10
1.05374e-10
5.22012e-11
2.10652e-11
5.43395e-12
2.73255e-13
1.58735e-15
7.20708e-05
2.92898e-07
6.37439e-09
4.93209e-09
5.63217e-09
6.34815e-09
7.03471e-09
7.67604e-09
8.26344e-09
8.79239e-09
9.26047e-09
9.6664e-09
1.00096e-08
1.02898e-08
1.0507e-08
1.06616e-08
1.0754e-08
1.07845e-08
1.07545e-08
1.06653e-08
1.05179e-08
1.03144e-08
1.0057e-08
9.74841e-09
9.39179e-09
8.99058e-09
8.54894e-09
8.07131e-09
7.34001e-09
6.09954e-09
5.03328e-09
4.12208e-09
3.34812e-09
2.69496e-09
2.14745e-09
1.69189e-09
1.31582e-09
1.00808e-09
7.5871e-10
5.58907e-10
4.00845e-10
2.77915e-10
1.84321e-10
1.15081e-10
6.59492e-11
3.32269e-11
1.36534e-11
3.39318e-12
1.72684e-13
1.00463e-15
3.5809e-05
1.57478e-07
2.4676e-09
1.50662e-09
1.74707e-09
1.98972e-09
2.21734e-09
2.42688e-09
2.61705e-09
2.7873e-09
2.93742e-09
3.06733e-09
3.17702e-09
3.26653e-09
3.33594e-09
3.38534e-09
3.41498e-09
3.4249e-09
3.41564e-09
3.38753e-09
3.34093e-09
3.27656e-09
3.19508e-09
3.09737e-09
2.98442e-09
2.85736e-09
2.71748e-09
2.56623e-09
2.40521e-09
2.23614e-09
2.0609e-09
1.88147e-09
1.67811e-09
1.35352e-09
1.08107e-09
8.54018e-10
6.66245e-10
5.12262e-10
3.87179e-10
2.86666e-10
2.06916e-10
1.44611e-10
9.68871e-11
6.12859e-11
3.57139e-11
1.83884e-11
7.74966e-12
1.86441e-12
9.77771e-14
5.70826e-16
1.4992e-05
7.52128e-08
8.97137e-10
3.41222e-10
3.97741e-10
4.5619e-10
5.10084e-10
5.592e-10
6.03525e-10
6.43085e-10
6.77904e-10
7.08004e-10
7.33406e-10
7.54128e-10
7.70196e-10
7.81644e-10
7.88514e-10
7.90841e-10
7.88724e-10
7.82264e-10
7.71535e-10
7.56699e-10
7.37921e-10
7.15398e-10
6.89361e-10
6.60072e-10
6.27829e-10
5.9297e-10
5.5586e-10
5.169e-10
4.76524e-10
4.35188e-10
3.93374e-10
3.51577e-10
3.10299e-10
2.70045e-10
2.31307e-10
1.94556e-10
1.59913e-10
1.18867e-10
8.62199e-11
6.06383e-11
4.09689e-11
2.62188e-11
1.55369e-11
8.19656e-12
3.57274e-12
8.1043e-13
4.6516e-14
2.74837e-16
5.01725e-06
3.03194e-08
3.08776e-10
4.75762e-11
5.37405e-11
6.18277e-11
6.92266e-11
7.59378e-11
8.19802e-11
8.73658e-11
9.21041e-11
9.61977e-11
9.96513e-11
1.02469e-10
1.04654e-10
1.0621e-10
1.07145e-10
1.07462e-10
1.07175e-10
1.06297e-10
1.04841e-10
1.02826e-10
1.00276e-10
9.72185e-11
9.36831e-11
8.97068e-11
8.53301e-11
8.05981e-11
7.55614e-11
7.02738e-11
6.47942e-11
5.91853e-11
5.35122e-11
4.7842e-11
4.22429e-11
3.67831e-11
3.15298e-11
2.65465e-11
2.18925e-11
1.76205e-11
1.3775e-11
1.03919e-11
7.49544e-12
5.0972e-12
3.19422e-12
1.76676e-12
7.80451e-13
2.07534e-13
1.5815e-14
9.92223e-17