/*--------------------------------*- C++ -*----------------------------------*\
| =========                 |                                                 |
| \\      /  F ield         | foam-extend: Open Source CFD                    |
|  \\    /   O peration     | Version:     4.0                                |
|   \\  /    A nd           | Web:         http://www.foam-extend.org         |
|    \\/     M anipulation  |                                                 |
\*---------------------------------------------------------------------------*/
FoamFile
{
    version     2.0;
    format      ascii;
    class       volScalarField;
    location    "0.00200001";
    object      omega;
}
// * * * * * * * * * * * * * * * * * * * * * * * * * * * * * * * * * * * * * //

dimensions      [0 0 -1 0 0 0 0];

internalField   nonuniform List<scalar> 
28770
(
1.87595e+07
1.87595e+07
1.87595e+07
1.87595e+07
1.87595e+07
1.87595e+07
1.87595e+07
1.87595e+07
1.87595e+07
1.87595e+07
1.87595e+07
1.87595e+07
1.87595e+07
1.87595e+07
1.87595e+07
1.87595e+07
1.87595e+07
1.87595e+07
1.87595e+07
1.87595e+07
1.87595e+07
1.87595e+07
1.87595e+07
1.87595e+07
1.87595e+07
1.87595e+07
1.87595e+07
1.87595e+07
1.87595e+07
1.87595e+07
1.87595e+07
1.87595e+07
1.87595e+07
1.87595e+07
1.87595e+07
1.87595e+07
1.87595e+07
1.87595e+07
1.87595e+07
1.87595e+07
1.87595e+07
1.87595e+07
1.87595e+07
1.87595e+07
1.87595e+07
1.87595e+07
1.87595e+07
1.87595e+07
1.87595e+07
1.87595e+07
2.63638e+06
3.18398e+06
3.23003e+06
3.23489e+06
3.23559e+06
3.23576e+06
3.23585e+06
3.23592e+06
3.236e+06
3.23608e+06
3.23617e+06
3.23626e+06
3.23637e+06
3.23649e+06
3.23662e+06
3.23677e+06
3.23694e+06
3.23712e+06
3.23733e+06
3.23757e+06
3.23783e+06
3.23812e+06
3.23845e+06
3.23882e+06
3.23922e+06
3.23969e+06
3.24018e+06
3.24073e+06
3.24137e+06
3.24202e+06
3.24278e+06
3.24356e+06
3.24446e+06
3.24539e+06
3.24638e+06
3.24748e+06
3.24859e+06
3.24976e+06
3.25098e+06
3.25223e+06
3.25348e+06
3.25472e+06
3.25597e+06
3.25726e+06
3.25886e+06
3.2622e+06
3.2769e+06
3.38547e+06
4.44901e+06
1.79872e+07
660116
1.01448e+06
1.08426e+06
1.09839e+06
1.10156e+06
1.10237e+06
1.10262e+06
1.10271e+06
1.10274e+06
1.10277e+06
1.10278e+06
1.1028e+06
1.10281e+06
1.10282e+06
1.10283e+06
1.10285e+06
1.10287e+06
1.10288e+06
1.1029e+06
1.10293e+06
1.10295e+06
1.10299e+06
1.10303e+06
1.10306e+06
1.10311e+06
1.10315e+06
1.1032e+06
1.10326e+06
1.10332e+06
1.10339e+06
1.10348e+06
1.10357e+06
1.10366e+06
1.10376e+06
1.10388e+06
1.10401e+06
1.10415e+06
1.1043e+06
1.10447e+06
1.10467e+06
1.10493e+06
1.10532e+06
1.10602e+06
1.10766e+06
1.11233e+06
1.12841e+06
1.19387e+06
1.50367e+06
3.24488e+06
1.79872e+07
221128
428648
495617
515890
522178
524258
525006
525301
525429
525491
525524
525544
525558
525569
525579
525589
525600
525611
525623
525636
525650
525667
525686
525708
525731
525758
525789
525823
525861
525904
525952
526008
526070
526141
526224
526322
526441
526594
526805
527124
527664
528687
530859
535995
549469
588494
713089
1.15855e+06
3.11708e+06
1.79872e+07
92680.8
212363
265855
287276
295683
299049
300455
301074
301365
301509
301584
301628
301654
301671
301684
301694
301704
301713
301721
301730
301741
301752
301765
301780
301796
301814
301836
301861
301889
301923
301963
302011
302069
302139
302231
302354
302525
302777
303174
303841
305038
307342
312078
322483
346899
408170
574304
1.08263e+06
3.09972e+06
1.79872e+07
46115
117440
157185
176702
185850
190110
192127
193110
193607
193868
194012
194094
194144
194176
194197
194212
194223
194232
194242
194250
194259
194269
194279
194292
194306
194322
194342
194366
194394
194429
194473
194528
194602
194700
194836
195032
195323
195774
196505
197744
199939
204008
211913
227998
262362
339968
529514
1.06342e+06
3.09642e+06
1.79872e+07
26035.8
70594.4
99501.5
116009
124888
129556
132008
133313
134022
134418
134645
134781
134863
134915
134951
134974
134992
135005
135017
135026
135037
135048
135058
135072
135087
135104
135127
135154
135189
135234
135293
135373
135480
135630
135844
136159
136636
137380
138574
140556
143957
149992
161080
182204
224155
312150
513694
1.05776e+06
3.09539e+06
1.79872e+07
16097.2
45278.5
66378.8
79853.4
87923.3
92603.4
95285.7
96825.7
97719
98245.7
98562.5
98757.4
98880.2
98959.7
99012.7
99049.2
99075.5
99095.4
99111.5
99125.3
99138.3
99151.4
99165.7
99181.8
99200.8
99224
99253
99290
99338
99401.1
99485.7
99600.8
99760.5
99986
100311
100788
101507
102612
104354
107168
111832
119766
133654
158744
205929
300078
507587
1.05578e+06
3.09479e+06
1.79872e+07
10648.5
30659.9
46216.2
57039.5
64099.7
68537
71273.6
72951
73981.9
74620.9
75022.3
75278.3
75444.8
75555.1
75630.1
75682.4
75720.2
75748.8
75771.5
75790.8
75808.7
75826.5
75845.5
75867.1
75892.7
75924.2
75964.1
76015.3
76082.4
76171.6
76291.8
76456.4
76684.7
77006.8
77468.3
78140.9
79138.8
80646.8
82970
86620.3
92475.8
102079
118225
146211
196816
294508
504997
1.05493e+06
3.09425e+06
1.79872e+07
7413.96
21673.6
33333.9
41999.3
48049.6
52111.4
54776
56504.3
57622
58347
58820.8
59133.8
59343.5
59486.2
59585.2
59655.5
59707
59746.1
59777.5
59804.1
59828.6
59852.8
59878.8
59908
59943
59986
60040.4
60110.6
60202.7
60325.2
60490.2
60715.1
61025.8
61460.7
62077.5
62964.9
64260.4
66180.6
69072.4
73497.2
80397
91369.8
109229
139238
192018
291745
503762
1.05443e+06
3.09364e+06
1.79872e+07
5372.36
15864.6
24753.9
31728
36863.6
40502.2
43016.8
44729.3
45887.5
46670
47200.6
47562.7
47812.4
47986.7
48110.4
48200
48266.6
48318
48359.5
48395
48427.8
48460.2
48494.8
48534
48580.7
48638.1
48710.8
48804.3
48926.5
49088.6
49305.7
49599.8
50002.6
50560.6
51342.4
52451.2
54034.2
56336.2
59735.6
64829.6
72587.5
84629.6
103770
135140
189275
290180
503021
1.05403e+06
3.09292e+06
1.79872e+07
4021.92
11959.6
18872.2
24512.7
28853.5
32070.8
34394.7
36045.6
37207.1
38021.1
38591.7
38993.1
39277.5
39481.2
39628.9
39738
39820.7
39885.2
39938.1
39983.9
40026.3
40068.6
40113.7
40164.9
40225.6
40300.1
40394
40514.5
40671.2
40877.6
41152.3
41521.1
42021.5
42707
43646.5
44959.1
46815.3
49471.1
53318.1
58967.3
67393.7
80207.5
100203
132477
187404
288956
502247
1.05346e+06
3.092e+06
1.79872e+07
3094.66
9245.77
14717.3
19316.2
22987.4
25812.9
27932.2
29493.5
30631.1
31454.6
32049.7
32480.2
32793.3
33022.8
33192.8
33320.8
33419.6
33498.1
33563.3
33620.3
33673.7
33727
33784.2
33849
33925.7
34019.6
34137.3
34287.5
34481.9
34735.9
35071.3
35517.6
36112.6
36914.9
38010.6
39521.4
41625.1
44585.2
48799.8
54880.9
63795.3
77123.3
97617.9
130392
185615
287301
500634
1.05194e+06
3.09043e+06
1.79872e+07
2438.41
7306.63
11707.7
15491.2
18610.1
21086.1
23003.4
24461.4
25556.7
26373.2
26979.5
27429.7
27764.9
28016
28206
28352
28466.4
28558.9
28636.8
28705.9
28771
28836.7
28907.1
28986.8
29081
29195.9
29339.2
29521.2
29754.8
30058.2
30454.8
30972.5
31660
32580.1
33821.2
35509.1
37825.1
41034.8
45533.5
51927.3
61169.6
74777.4
95447.1
128210
183174
284021
495963
1.04578e+06
3.08414e+06
1.79872e+07
1962.48
5889.27
9484.28
12631.9
15293.7
17464.4
19192
20542.5
21584.8
22382.3
22989.4
23450.9
23802.2
24070.9
24278.2
24440.3
24569.7
24676
24766.7
24848.1
24925.6
25004.3
25088.7
25184.3
25297.1
25434.1
25604.1
25818.5
26092.3
26443.4
26896
27487.1
28264.1
29292.7
30663.7
32504.3
34995.9
38399.5
43101
49690.7
59140.9
72814.2
93347.2
125577
179358
277136
482233
1.01751e+06
3.02637e+06
1.79872e+07
1610.59
4834.29
7814.86
10464.7
12749.4
14657.5
16212.8
17458.3
18442.6
19213.5
19813.7
20279.8
20641.9
20924.3
21146.1
21322.6
21465.8
21585.2
21688.5
21782.3
21872.4
21964.3
22063.3
22175.4
22307.1
22466.6
22663.5
22910.5
23221.9
23618.3
24128
24787.8
25647.1
26772.7
28256.6
30225.5
32857.6
36405.8
41236.2
47875.9
54550.2
67689.9
86014.6
114196
160001
240261
397985
770573
1.99714e+06
1.22866e+07
1346.48
4037.8
6545.16
8802.01
10776.6
12463
13866
15013
15938.9
16679.1
17267.2
17732.8
18101.3
18393.8
18627.5
18816.5
18972
19103.7
19219.1
19325
19427.7
19532.8
19646.3
19774.8
19925.5
20107.2
20330.6
20607.7
20955.3
21396.2
21959.1
22681.8
23614.7
24825.3
26405
28479.3
31222.2
34879.9
39808
46533
53227.5
66147.6
84134.1
111551
155731
232880
383448
744578
2.00069e+06
1.23219e+07
1146.08
3430.23
5570.63
7516.79
9241.14
10738.8
12008.7
13066.2
13935.9
14644.1
15216.9
15678.5
16050
16349.6
16592.8
16792.3
16959
17101.8
17228.5
17345.9
17460.6
17578.6
17706.4
17850.8
18019.9
18223
18470.7
18776.4
19158.9
19640.9
20252.1
21031
22028.2
23311.3
24970.8
27129.7
29958.2
33695.2
38685.4
45441.9
52159.9
64855.5
82553.3
109357
152355
227386
374632
728947
1.97504e+06
1.22864e+07
993.049
2963.99
4818.87
6519.35
8042.22
9380.88
10536.8
11515.4
12333.2
13010
13566.4
14021.6
14393.6
14698.1
14948.5
15156.9
15333.1
15485.9
15622.9
15751.1
15877
16007.2
16148.4
16308
16494.3
16717
16987
17319.9
17734.1
18253.2
18907.2
19735.1
20787.4
22131.1
23855.4
26080.8
28973.1
32764.9
37791
44550.9
51263
63751.6
81174.4
107431
149298
235201
390946
766732
2.10985e+06
1.67617e+07
876.033
2605.87
4238.87
5745.89
7107.52
8316.07
9374.61
10284.8
11056.4
11704.1
12244
12691.9
13062.7
13370.1
13626.2
13841.7
14026
14187.5
14333.7
14471.7
14607.9
14749.2
14902.6
15076
15278.3
15518.1
15809
16166.2
16608.6
17160.2
17851.3
18720.7
19818.9
21212.2
22988
25264.2
28202.5
32029.2
37070.6
43812.8
50500.2
62797.1
79967.5
105764
146781
230529
382427
747942
2.05354e+06
1.66211e+07
787.028
2332.38
3794.28
5150.5
6384.77
7489.62
8465.74
9318.12
10050.1
10672
11196.7
11637
12005.8
12314.8
12575.1
12796.2
12987.3
13156.2
13310.3
13456.6
13602
13753.2
13917.6
14103.3
14318.7
14574.4
14883.7
15261.9
15728.6
16307.7
17029.8
17933.7
19069.3
20501.9
22317.4
24631.2
27600.8
31447.1
36487.8
43196.9
49845.1
61957.3
78886.1
104278
144642
227194
377363
746080
2.04801e+06
1.65087e+07
720.359
2126.8
3459.06
4700.01
5835.91
6859.76
7770.79
8574.14
9273.03
9873.22
10384.6
10818
11184.4
11494.3
11757.6
11983.2
12179.6
12354.6
12515.3
12668.7
12821.7
12981.3
13155
13351
13577.7
13846.8
14171.4
14567.2
15053.8
15655.5
16402.8
17334.2
18499.3
19962.2
21807.3
24147.6
27137.1
30991.3
36019.9
42684.2
49282.7
61204.3
77874.8
102835
142493
223616
371439
734864
2.02763e+06
1.62449e+07
672.009
1977.26
3214.6
4370.6
5433.4
6396.51
7258.54
8022.53
8694.7
9277.84
9778.65
10206.4
10570.5
10880.8
11146
11375
11575.6
11755.2
11921.2
12080.2
12239.4
12405.6
12586.7
12790.8
13026.8
13306.5
13643.3
14052.9
14555.3
15174.5
15941.1
16893.5
18080.6
19565.7
21432
23790
26790.9
30645
35654.8
42268.1
48814.6
60529.3
76906.1
101337
140025
218777
361931
711505
2.13987e+06
1.14251e+07
639.189
1875.49
3047.92
4145.53
5157.8
6078.6
6906.3
7642.98
8293.83
8864.44
9357.9
9781.47
10144
10454.2
10720.9
10952.2
11155.6
11338.7
11508.4
11671.6
11835.1
12006.3
12192.9
12402.6
12645.6
12933.1
13278.5
13698.3
14211.8
14843.6
15623.9
16591
17793.4
19293.8
21173.9
23543
26549.3
30399.5
35389.4
41953.7
48458.9
59955.5
76018
99826.2
137218
212287
347150
676626
2.06448e+06
1.16742e+07
619.864
1815.44
2949.4
4012.32
4994.41
5889.87
6696.87
7417.09
8054.94
8616.59
9105.75
9526.99
9888.46
10198.8
10466.3
10698.8
10904
11089.2
11261.2
11426.8
11593.1
11767.4
11957.3
12170.7
12417.9
12710.2
13061.1
13486.9
14007.4
14646.8
15435.4
16411.4
17622.9
19132.2
21020.4
23395.4
26404
30249.8
35224
41751.9
48242.4
59535.2
75322.7
98539.9
134552
205200
326856
603505
1.3498e+06
5.94846e+06
613.526
1795.64
2916.87
3968.26
4940.31
5827.3
6627.38
7342.07
7975.55
8533.78
9021.57
9442.14
9803.31
10113.7
10381.3
10614.4
10820.2
11006.1
11178.8
11345.3
11512.6
11687.8
11878.9
12093.5
12342.1
12636
12988.8
13416.7
13939.4
14581.4
15372.9
16351.7
17566.3
19078.5
20969.4
23346.3
26355.3
30199.3
35167.7
41681.9
48196.3
59335.4
74977.2
97865.3
133049
201232
313717
543524
1.02412e+06
2.11535e+06
620.021
1815.67
2949.65
4012.55
4994.6
5890.03
6697
7417.16
8054.97
8616.58
9105.76
9527.01
9888.49
10198.8
10466.3
10698.8
10904.1
11089.2
11261.2
11426.8
11593.1
11767.4
11957.3
12170.7
12417.9
12710.2
13061.1
13486.9
14007.4
14646.8
15435.4
16411.4
17622.9
19132.2
21020.4
23395.4
26404
30249.8
35224
41751.9
48328.9
59404.3
75095.5
98098.8
133577
203606
322079
582565
1.28707e+06
4.92825e+06
639.498
1875.95
3048.39
4145.96
5158.16
6078.89
6906.51
7643.11
8293.87
8864.47
9357.94
9781.52
10144
10454.3
10721
10952.2
11155.7
11338.8
11508.4
11671.6
11835.1
12006.3
12192.9
12402.6
12645.6
12933.1
13278.5
13698.2
14211.7
14843.5
15623.9
16590.9
17793.3
19293.7
21173.9
23543
26549.3
30399.5
35389.3
41953.7
48616.7
59725.4
75638.1
99135.1
135819
210296
342403
662220
1.70108e+06
1.18126e+07
672.46
1977.91
3215.26
4371.2
5433.9
6396.89
7258.81
8022.68
8694.76
9277.9
9778.73
10206.4
10570.6
10880.8
11146.1
11375
11575.6
11755.2
11921.2
12080.2
12239.4
12405.6
12586.7
12790.7
13026.8
13306.5
13643.2
14052.8
14555.2
15174.4
15941.1
16893.4
18080.5
19565.7
21431.9
23790
26790.9
30645
35654.8
42268
49029.9
60230.2
76446.5
100573
138648
217150
358835
705051
1.80517e+06
1.14156e+07
720.93
2127.62
3459.87
4700.74
5836.51
6860.2
7771.08
8574.24
9273.12
9873.32
10384.7
10818.1
11184.5
11494.4
11757.6
11983.2
12179.7
12354.7
12515.3
12668.7
12821.7
12981.3
13155
13351
13577.7
13846.8
14171.3
14567.1
15053.8
15655.4
16402.7
17334.1
18499.2
19962.1
21807.3
24147.5
27137
30991.2
36019.9
42684.2
49544.8
60859.6
77384.7
102094
141310
222478
369445
729721
2.00964e+06
1.5906e+07
787.697
2333.33
3795.22
5151.3
6385.4
7490.07
8465.99
9318.27
10050.2
10672.1
11196.8
11637.1
12005.9
12314.9
12575.2
12796.3
12987.3
13156.2
13310.3
13456.6
13602
13753.2
13917.6
14103.3
14318.7
14574.3
14883.6
15261.8
15728.5
16307.6
17029.7
17933.6
19069.2
20501.8
22317.4
24631.1
27600.8
31447.1
36487.8
43196.9
50151
61573.9
78374.6
103559
143592
226380
376115
744424
2.04664e+06
1.64716e+07
876.775
2606.89
4239.86
5746.72
7108.15
8316.5
9374.88
10285
11056.6
11704.3
12244.1
12692
13062.9
13370.2
13626.3
13841.7
14026
14187.6
14333.7
14471.7
14607.9
14749.2
14902.6
15076
15278.2
15518
15808.9
16166.1
16608.5
17160.1
17851.2
18720.6
19818.8
21212.1
22987.9
25264.1
28202.5
32029.2
37070.5
43812.8
50855.7
62366.8
79414.9
105007
145688
229712
381007
746679
2.05118e+06
1.65976e+07
993.843
2965.05
4819.88
6520.17
8042.82
9381.19
10537
11515.6
12333.3
13010.2
13566.5
14021.7
14393.7
14698.2
14948.6
15157
15333.1
15485.9
15623
15751.2
15877
16007.2
16148.4
16307.9
16494.2
16716.9
16986.9
17319.8
17734
18253.1
18907.2
19734.9
20787.3
22131
23855.3
26080.8
28973.1
32764.8
37791
44550.8
51680.1
63258.8
80551.8
106567
147973
233835
388279
759071
2.08005e+06
1.66829e+07
1146.89
3431.29
5571.62
7517.55
9241.66
10739.1
12008.9
13066.4
13936
14644.3
15217.1
15678.6
16050.1
16349.7
16592.9
16792.4
16959
17101.8
17228.5
17345.9
17460.6
17578.6
17706.4
17850.8
18019.9
18222.9
18470.6
18776.3
19158.8
19640.8
20252
21030.9
22028.1
23311.2
24970.7
27129.6
29958.1
33695.1
38685.4
45441.9
52656
64282.6
81840.2
108363
150806
224825
369891
715299
1.92284e+06
1.20467e+07
1347.28
4038.82
6546.07
8802.69
10777
12463.3
13866.2
15013.2
15939
16679.3
17267.3
17732.9
18101.4
18393.9
18627.6
18816.5
18972.1
19103.7
19219.1
19325
19427.7
19532.8
19646.3
19774.8
19925.5
20107.1
20330.5
20607.6
20955.2
21396.1
21959
22681.7
23614.6
24825.2
26404.9
28479.2
31222.1
34879.9
39808
46532.9
53827.4
65474.9
83317
110418
153982
230019
378943
737674
1.99351e+06
1.23133e+07
1611.36
4835.25
7815.67
10465.2
12749.7
14657.7
16213
17458.4
18442.8
19213.6
19813.8
20279.9
20642
20924.3
21146.2
21322.7
21465.9
21585.2
21688.5
21782.3
21872.4
21964.2
22063.3
22175.4
22307
22466.5
22663.4
22910.4
23221.9
23618.2
24127.9
24787.7
25647
26772.7
28256.5
30225.5
32857.5
36405.8
41236.2
47875.9
55315
66864.8
84993.5
112744
157612
235913
388996
753144
2.00362e+06
1.23001e+07
1963.2
5890.11
9484.96
12632.3
15294
17464.6
19192.1
20542.6
21584.9
22382.4
22989.5
23451
23802.3
24070.9
24278.3
24440.3
24569.7
24676
24766.7
24848.1
24925.6
25004.2
25088.7
25184.3
25297.1
25434
25604
25818.5
26092.3
26443.3
26896
27487
28264.1
29292.6
30663.6
32504.2
34995.8
38399.5
43101
49690.6
59140.7
72814.2
93347.2
125577
179358
277136
482233
1.01751e+06
3.02637e+06
1.79872e+07
2439.06
7307.35
11708.3
15491.5
18610.3
21086.3
23003.5
24461.5
25556.7
26373.2
26979.5
27429.7
27764.9
28016
28206.1
28352
28466.4
28558.9
28636.8
28705.9
28771
28836.7
28907
28986.8
29081
29195.8
29339.2
29521.1
29754.8
30058.1
30454.7
30972.5
31660
32580
33821.2
35509
37825.1
41034.7
45533.5
51927.2
61169.5
74777.4
95447.1
128210
183174
284021
495963
1.04578e+06
3.08414e+06
1.79872e+07
3095.21
9246.36
14717.7
19316.4
22987.6
25813
27932.2
29493.6
30631.1
31454.6
32049.7
32480.2
32793.3
33022.8
33192.8
33320.8
33419.6
33498.1
33563.3
33620.3
33673.7
33727
33784.2
33848.9
33925.7
34019.6
34137.3
34287.5
34481.8
34735.8
35071.2
35517.6
36112.6
36914.9
38010.6
39521.4
41625
44585.2
48799.8
54880.9
63795.3
77123.3
97617.9
130392
185615
287301
500634
1.05194e+06
3.09043e+06
1.79872e+07
4022.38
11960
18872.5
24512.8
28853.6
32070.8
34394.7
36045.6
37207.1
38021
38591.7
38993.1
39277.5
39481.2
39628.9
39738
39820.7
39885.2
39938.1
39983.9
40026.3
40068.6
40113.7
40164.9
40225.6
40300.1
40394
40514.5
40671.2
40877.6
41152.2
41521.1
42021.5
42706.9
43646.5
44959.1
46815.3
49471
53318.1
58967.3
67393.7
80207.5
100203
132477
187404
288956
502247
1.05346e+06
3.092e+06
1.79872e+07
5372.69
15864.8
24754
31728
36863.6
40502.2
43016.7
44729.2
45887.5
46670
47200.5
47562.7
47812.4
47986.7
48110.4
48200
48266.6
48318
48359.5
48395
48427.8
48460.2
48494.8
48534
48580.7
48638.1
48710.8
48804.2
48926.5
49088.6
49305.7
49599.8
50002.6
50560.6
51342.4
52451.1
54034.2
56336.2
59735.6
64829.6
72587.5
84629.6
103770
135140
189275
290180
503021
1.05403e+06
3.09292e+06
1.79872e+07
7414.15
21673.6
33333.8
41999.1
48049.5
52111.3
54776
56504.3
57621.9
58346.9
58820.8
59133.8
59343.5
59486.2
59585.2
59655.5
59707
59746.1
59777.5
59804.1
59828.6
59852.8
59878.8
59908
59943
59986
60040.4
60110.6
60202.7
60325.2
60490.2
60715.1
61025.8
61460.7
62077.5
62964.9
64260.4
66180.6
69072.4
73497.2
80397
91369.8
109229
139238
192018
291745
503762
1.05443e+06
3.09364e+06
1.79872e+07
10648.5
30659.5
46215.7
57039.1
64099.5
68536.8
71273.5
72950.9
73981.8
74620.9
75022.3
75278.3
75444.7
75555.1
75630.1
75682.4
75720.1
75748.8
75771.5
75790.8
75808.7
75826.5
75845.5
75867.1
75892.7
75924.2
75964.1
76015.3
76082.4
76171.6
76291.8
76456.4
76684.7
77006.8
77468.3
78140.9
79138.8
80646.8
82970
86620.2
92475.8
102079
118225
146211
196816
294508
504997
1.05493e+06
3.09425e+06
1.79872e+07
16096.8
45277.1
66377.9
79852.9
87923
92603.3
95285.6
96825.6
97718.9
98245.6
98562.5
98757.3
98880.2
98959.7
99012.6
99049.2
99075.5
99095.4
99111.4
99125.3
99138.3
99151.4
99165.7
99181.8
99200.8
99224
99253
99290
99338
99401.1
99485.7
99600.9
99760.5
99986
100311
100788
101507
102612
104354
107168
111832
119766
133654
158744
205929
300078
507587
1.05578e+06
3.09479e+06
1.79872e+07
26035
70590.5
99499.9
116008
124888
129556
132008
133313
134022
134418
134645
134781
134863
134915
134951
134974
134992
135005
135017
135026
135037
135048
135058
135072
135087
135104
135127
135154
135189
135234
135293
135373
135480
135630
135844
136159
136636
137380
138574
140556
143957
149992
161080
182204
224155
312150
513694
1.05776e+06
3.09539e+06
1.79872e+07
46114.5
117438
157184
176701
185850
190110
192127
193110
193606
193868
194012
194094
194144
194176
194197
194212
194223
194232
194242
194250
194259
194269
194279
194292
194306
194322
194342
194366
194394
194429
194473
194528
194602
194700
194836
195032
195323
195774
196505
197744
199939
204008
211913
227998
262362
339968
529514
1.06342e+06
3.09642e+06
1.79872e+07
92680.7
212363
265854
287276
295683
299049
300455
301074
301365
301509
301584
301628
301654
301671
301684
301694
301704
301713
301721
301730
301741
301752
301765
301780
301796
301814
301836
301861
301889
301923
301963
302011
302069
302139
302231
302354
302525
302777
303174
303841
305038
307342
312078
322483
346899
408170
574304
1.08263e+06
3.09972e+06
1.79872e+07
221128
428647
495617
515890
522178
524258
525006
525301
525429
525491
525524
525544
525558
525569
525579
525589
525600
525611
525623
525636
525650
525667
525686
525708
525731
525758
525789
525823
525861
525904
525952
526008
526070
526141
526224
526322
526441
526594
526805
527124
527664
528687
530859
535995
549469
588494
713089
1.15855e+06
3.11708e+06
1.79872e+07
660116
1.01448e+06
1.08426e+06
1.09839e+06
1.10156e+06
1.10237e+06
1.10262e+06
1.10271e+06
1.10274e+06
1.10277e+06
1.10278e+06
1.1028e+06
1.10281e+06
1.10282e+06
1.10284e+06
1.10285e+06
1.10287e+06
1.10288e+06
1.10291e+06
1.10293e+06
1.10295e+06
1.10299e+06
1.10303e+06
1.10306e+06
1.10311e+06
1.10315e+06
1.1032e+06
1.10326e+06
1.10332e+06
1.10339e+06
1.10348e+06
1.10357e+06
1.10366e+06
1.10376e+06
1.10388e+06
1.10401e+06
1.10415e+06
1.1043e+06
1.10447e+06
1.10467e+06
1.10493e+06
1.10532e+06
1.10602e+06
1.10766e+06
1.11233e+06
1.12841e+06
1.19387e+06
1.50367e+06
3.24488e+06
1.79872e+07
2.63638e+06
3.18398e+06
3.23003e+06
3.23489e+06
3.23559e+06
3.23576e+06
3.23585e+06
3.23592e+06
3.236e+06
3.23608e+06
3.23617e+06
3.23626e+06
3.23637e+06
3.23649e+06
3.23662e+06
3.23677e+06
3.23693e+06
3.23712e+06
3.23733e+06
3.23757e+06
3.23783e+06
3.23813e+06
3.23845e+06
3.23882e+06
3.23922e+06
3.23969e+06
3.24018e+06
3.24073e+06
3.24137e+06
3.24203e+06
3.24277e+06
3.24356e+06
3.24446e+06
3.24539e+06
3.24638e+06
3.24748e+06
3.24859e+06
3.24976e+06
3.25098e+06
3.25223e+06
3.25348e+06
3.25472e+06
3.25597e+06
3.25726e+06
3.25886e+06
3.2622e+06
3.2769e+06
3.38547e+06
4.44901e+06
1.79872e+07
1.87595e+07
1.87595e+07
1.87595e+07
1.87595e+07
1.87595e+07
1.87595e+07
1.87595e+07
1.87595e+07
1.87595e+07
1.87595e+07
1.87595e+07
1.87595e+07
1.87595e+07
1.87595e+07
1.87595e+07
1.87595e+07
1.87595e+07
1.87595e+07
1.87595e+07
1.87595e+07
1.87595e+07
1.87595e+07
1.87595e+07
1.87595e+07
1.87595e+07
1.87595e+07
1.87595e+07
1.87595e+07
1.87595e+07
1.87595e+07
1.87595e+07
1.87595e+07
1.87595e+07
1.87595e+07
1.87595e+07
1.87595e+07
1.87595e+07
1.87595e+07
1.87595e+07
1.87595e+07
1.87595e+07
1.87595e+07
1.87595e+07
1.87595e+07
1.87595e+07
1.87595e+07
1.87595e+07
1.87595e+07
1.87595e+07
1.87595e+07
7.37411e+07
6.98369e+07
6.80463e+07
6.76847e+07
6.7649e+07
6.76365e+07
6.76711e+07
6.76703e+07
6.76611e+07
6.76725e+07
6.766e+07
6.76502e+07
6.76599e+07
6.76537e+07
6.7659e+07
6.76575e+07
6.76652e+07
6.77044e+07
6.73558e+07
6.57316e+07
3.25109e+06
3.32472e+06
3.32441e+06
3.32267e+06
3.31162e+06
3.29943e+06
3.31742e+06
3.32343e+06
3.32444e+06
3.32456e+06
3.32456e+06
3.32456e+06
3.32456e+06
3.32456e+06
3.32456e+06
3.32456e+06
3.32455e+06
3.32453e+06
3.32485e+06
3.35465e+06
1.235e+07
1.203e+07
1.19799e+07
1.19553e+07
1.19527e+07
1.19703e+07
1.1963e+07
1.19522e+07
1.19517e+07
1.19517e+07
1.19517e+07
1.19517e+07
1.19517e+07
1.19517e+07
1.19517e+07
1.19518e+07
1.19527e+07
1.19448e+07
1.19235e+07
1.1765e+07
1.87595e+07
1.87595e+07
1.87595e+07
1.87595e+07
1.87595e+07
1.87595e+07
1.87595e+07
1.87595e+07
1.87595e+07
1.87595e+07
1.87595e+07
1.87595e+07
1.87595e+07
1.87595e+07
1.87595e+07
1.87595e+07
1.87595e+07
1.87595e+07
1.87595e+07
1.87595e+07
1.87595e+07
1.87595e+07
1.87595e+07
1.87595e+07
1.87595e+07
1.87595e+07
1.87595e+07
1.87595e+07
1.87595e+07
1.87595e+07
1.87595e+07
1.87595e+07
1.87595e+07
1.87595e+07
1.87595e+07
1.87595e+07
1.87595e+07
1.87595e+07
1.87595e+07
1.87595e+07
1.87595e+07
1.87595e+07
1.87595e+07
1.87595e+07
1.87595e+07
1.87595e+07
1.87595e+07
1.87595e+07
1.87595e+07
1.87595e+07
1.87595e+07
1.87595e+07
1.87595e+07
1.87595e+07
1.87595e+07
1.87595e+07
1.87595e+07
1.87595e+07
1.87595e+07
1.87595e+07
1.87595e+07
1.87595e+07
1.87595e+07
1.87595e+07
1.87595e+07
1.87595e+07
1.87595e+07
1.87595e+07
1.87595e+07
1.87595e+07
1.87595e+07
1.87595e+07
1.87595e+07
1.87595e+07
1.87595e+07
1.87595e+07
1.87595e+07
1.87595e+07
1.87595e+07
1.87595e+07
1.87595e+07
1.87595e+07
1.87595e+07
1.87595e+07
1.87595e+07
1.87595e+07
1.87595e+07
1.87595e+07
1.87595e+07
1.87595e+07
1.87595e+07
1.87595e+07
1.87595e+07
1.87595e+07
1.87595e+07
1.87595e+07
1.87595e+07
1.87595e+07
1.87595e+07
1.87595e+07
1.79872e+07
4.44773e+06
3.35699e+06
3.2471e+06
3.23298e+06
3.23069e+06
3.23035e+06
3.23044e+06
3.23066e+06
3.23094e+06
3.23123e+06
3.23153e+06
3.23182e+06
3.23213e+06
3.23241e+06
3.23268e+06
3.23293e+06
3.23318e+06
3.2334e+06
3.23361e+06
3.2338e+06
3.23398e+06
3.23414e+06
3.23429e+06
3.23443e+06
3.23455e+06
3.23466e+06
3.23476e+06
3.23484e+06
3.23492e+06
3.23499e+06
3.23505e+06
3.23511e+06
3.23516e+06
3.2352e+06
3.23524e+06
3.23527e+06
3.23531e+06
3.23533e+06
3.23536e+06
3.23538e+06
3.2354e+06
3.23541e+06
3.23543e+06
3.23544e+06
3.23545e+06
3.23546e+06
3.23547e+06
3.23548e+06
3.23549e+06
3.23549e+06
3.2355e+06
3.2355e+06
3.23551e+06
3.23551e+06
3.23552e+06
3.23552e+06
3.23552e+06
3.23552e+06
3.23553e+06
3.23553e+06
3.23553e+06
3.23553e+06
3.23553e+06
3.23553e+06
3.23553e+06
3.23553e+06
3.23553e+06
3.23554e+06
3.23554e+06
3.23554e+06
3.23554e+06
3.23554e+06
3.23554e+06
3.23554e+06
3.23554e+06
3.23554e+06
3.23554e+06
3.23554e+06
3.23554e+06
3.23554e+06
3.23554e+06
3.23554e+06
3.23554e+06
3.23554e+06
3.23554e+06
3.23554e+06
3.23554e+06
3.23554e+06
3.23554e+06
3.23554e+06
3.23554e+06
3.23554e+06
3.23554e+06
3.23554e+06
3.23554e+06
3.23554e+06
3.23554e+06
3.23554e+06
3.23554e+06
1.79872e+07
3.27306e+06
1.50347e+06
1.19037e+06
1.12399e+06
1.10776e+06
1.1032e+06
1.10176e+06
1.10129e+06
1.10116e+06
1.10116e+06
1.10121e+06
1.10131e+06
1.1014e+06
1.1015e+06
1.1016e+06
1.1017e+06
1.10179e+06
1.10187e+06
1.10195e+06
1.10203e+06
1.1021e+06
1.10217e+06
1.10223e+06
1.10228e+06
1.10233e+06
1.10237e+06
1.10241e+06
1.10245e+06
1.10248e+06
1.10251e+06
1.10253e+06
1.10255e+06
1.10257e+06
1.10259e+06
1.10261e+06
1.10262e+06
1.10263e+06
1.10264e+06
1.10266e+06
1.10266e+06
1.10267e+06
1.10268e+06
1.10268e+06
1.10269e+06
1.10269e+06
1.1027e+06
1.1027e+06
1.10271e+06
1.10271e+06
1.10271e+06
1.10271e+06
1.10272e+06
1.10272e+06
1.10272e+06
1.10272e+06
1.10272e+06
1.10272e+06
1.10272e+06
1.10272e+06
1.10272e+06
1.10273e+06
1.10273e+06
1.10273e+06
1.10273e+06
1.10273e+06
1.10273e+06
1.10273e+06
1.10273e+06
1.10273e+06
1.10273e+06
1.10273e+06
1.10273e+06
1.10273e+06
1.10273e+06
1.10273e+06
1.10273e+06
1.10273e+06
1.10273e+06
1.10273e+06
1.10273e+06
1.10273e+06
1.10273e+06
1.10273e+06
1.10273e+06
1.10273e+06
1.10273e+06
1.10273e+06
1.10273e+06
1.10273e+06
1.10273e+06
1.10273e+06
1.10273e+06
1.10273e+06
1.10273e+06
1.10273e+06
1.10273e+06
1.10273e+06
1.10273e+06
1.10273e+06
1.79872e+07
3.14831e+06
1.162e+06
713042
586991
547432
533814
528695
526608
525702
525291
525106
525027
525005
525010
525031
525060
525093
525126
525161
525193
525224
525254
525280
525305
525329
525350
525368
525386
525401
525415
525428
525439
525449
525458
525465
525472
525479
525484
525489
525494
525498
525501
525504
525507
525509
525511
525513
525515
525516
525517
525519
525520
525521
525521
525522
525523
525523
525524
525524
525524
525525
525525
525525
525525
525526
525526
525526
525526
525526
525526
525526
525526
525526
525527
525527
525527
525527
525527
525527
525527
525527
525527
525527
525527
525527
525527
525527
525527
525527
525527
525527
525527
525527
525527
525527
525527
525527
525527
525527
1.79872e+07
3.1324e+06
1.08744e+06
575888
408189
346174
321433
310914
306165
303899
302762
302167
301845
301669
301572
301521
301496
301487
301487
301493
301502
301513
301524
301537
301548
301559
301569
301579
301588
301596
301603
301610
301616
301621
301626
301631
301634
301638
301641
301644
301646
301648
301650
301652
301654
301655
301656
301657
301658
301659
301660
301660
301661
301661
301662
301662
301662
301663
301663
301663
301663
301664
301664
301664
301664
301664
301664
301664
301664
301665
301665
301665
301665
301665
301665
301665
301665
301665
301665
301665
301665
301665
301665
301665
301665
301665
301665
301665
301665
301665
301665
301665
301665
301665
301665
301665
301665
301665
301665
301665
1.79872e+07
3.13052e+06
1.06884e+06
531888
340831
262416
227629
211335
203344
199254
197073
195868
195177
194771
194527
194377
194285
194227
194192
194171
194160
194154
194152
194152
194155
194157
194160
194164
194168
194172
194176
194179
194181
194184
194187
194189
194191
194193
194195
194196
194197
194199
194200
194201
194202
194203
194203
194204
194205
194205
194206
194206
194206
194207
194207
194207
194207
194207
194207
194207
194207
194207
194207
194207
194207
194207
194208
194208
194208
194208
194208
194208
194208
194208
194208
194208
194208
194208
194208
194208
194208
194208
194208
194208
194208
194208
194208
194208
194208
194208
194208
194208
194208
194208
194208
194208
194208
194208
194208
194208
1.79872e+07
3.13118e+06
1.0636e+06
516506
313502
224695
182278
160892
149666
143566
140144
138164
136988
136271
135823
135537
135351
135230
135149
135094
135058
135033
135017
135005
134998
134993
134990
134989
134988
134988
134988
134989
134989
134990
134990
134991
134992
134993
134993
134994
134995
134995
134996
134997
134996
134997
134997
134998
134998
134998
134999
134999
134999
134999
135000
135000
134999
134999
134999
134999
134999
134999
134999
135000
135000
135000
135000
135000
135000
135000
135000
135000
135000
135000
135000
135000
135000
135000
135000
135000
135000
135000
135000
135000
135000
135000
135000
135000
135000
135000
135000
135000
135000
135000
135000
135000
135000
135000
135000
135000
1.79872e+07
3.13268e+06
1.06201e+06
510704
301742
206788
159122
133741
119682
111651
106940
104107
102365
101270
100568
100110
99804.5
99598.7
99457.8
99360
99291.3
99242.5
99207.6
99182.1
99163.4
99149.7
99139.4
99131.7
99126
99121.6
99118.3
99115.8
99113.9
99112.5
99111.5
99110.8
99110.3
99109.8
99109.6
99109.4
99109.3
99109.3
99109.3
99109.3
99109.3
99109.4
99109.5
99109.7
99109.7
99109.9
99110
99110.1
99110.2
99110.2
99110.2
99110.2
99110.2
99110.1
99110.1
99110.1
99110
99110
99109.9
99109.9
99109.9
99109.9
99109.9
99109.8
99109.8
99109.8
99109.8
99109.8
99109.7
99109.7
99109.7
99109.7
99109.7
99109.7
99109.8
99109.8
99109.8
99109.8
99109.8
99109.8
99109.8
99109.8
99109.8
99109.8
99109.8
99109.8
99109.8
99109.8
99109.9
99109.9
99109.9
99109.9
99109.9
99109.9
99109.9
99109.9
1.79872e+07
3.13473e+06
1.06159e+06
508387
296406
197903
146809
118516
102179
92458.2