/*--------------------------------*- C++ -*----------------------------------*\
| =========                 |                                                 |
| \\      /  F ield         | foam-extend: Open Source CFD                    |
|  \\    /   O peration     | Version:     4.0                                |
|   \\  /    A nd           | Web:         http://www.foam-extend.org         |
|    \\/     M anipulation  |                                                 |
\*---------------------------------------------------------------------------*/
FoamFile
{
    version     2.0;
    format      ascii;
    class       volScalarField;
    location    "0.00200001";
    object      pd;
}
// * * * * * * * * * * * * * * * * * * * * * * * * * * * * * * * * * * * * * //

dimensions      [1 -1 -2 0 0 0 0];

internalField   nonuniform List<scalar> 
28770
(
2.99824e+07
2.99471e+07
2.99119e+07
2.98767e+07
2.98415e+07
2.98063e+07
2.97711e+07
2.9736e+07
2.97009e+07
2.96658e+07
2.96308e+07
2.95959e+07
2.9561e+07
2.95262e+07
2.94914e+07
2.94568e+07
2.94223e+07
2.93879e+07
2.93537e+07
2.93196e+07
2.92857e+07
2.9252e+07
2.92185e+07
2.91853e+07
2.91524e+07
2.91198e+07
2.90876e+07
2.90558e+07
2.90245e+07
2.89937e+07
2.89635e+07
2.89339e+07
2.89051e+07
2.8877e+07
2.88498e+07
2.88236e+07
2.87985e+07
2.87745e+07
2.87518e+07
2.87305e+07
2.87107e+07
2.86924e+07
2.86759e+07
2.86612e+07
2.86483e+07
2.86375e+07
2.86287e+07
2.8622e+07
2.86176e+07
2.86153e+07
2.99824e+07
2.99471e+07
2.99119e+07
2.98767e+07
2.98414e+07
2.98063e+07
2.97711e+07
2.97359e+07
2.97008e+07
2.96658e+07
2.96308e+07
2.95958e+07
2.95609e+07
2.95261e+07
2.94913e+07
2.94567e+07
2.94222e+07
2.93878e+07
2.93535e+07
2.93194e+07
2.92855e+07
2.92517e+07
2.92182e+07
2.9185e+07
2.91521e+07
2.91194e+07
2.90872e+07
2.90554e+07
2.9024e+07
2.89931e+07
2.89629e+07
2.89332e+07
2.89043e+07
2.88762e+07
2.88489e+07
2.88226e+07
2.87974e+07
2.87733e+07
2.87505e+07
2.87291e+07
2.87092e+07
2.86908e+07
2.86742e+07
2.86593e+07
2.86464e+07
2.86355e+07
2.86266e+07
2.86199e+07
2.86154e+07
2.86132e+07
2.99824e+07
2.99471e+07
2.99119e+07
2.98766e+07
2.98414e+07
2.98062e+07
2.9771e+07
2.97359e+07
2.97008e+07
2.96657e+07
2.96307e+07
2.95957e+07
2.95608e+07
2.95259e+07
2.94912e+07
2.94565e+07
2.94219e+07
2.93875e+07
2.93532e+07
2.9319e+07
2.92851e+07
2.92513e+07
2.92177e+07
2.91844e+07
2.91514e+07
2.91187e+07
2.90864e+07
2.90545e+07
2.9023e+07
2.8992e+07
2.89616e+07
2.89318e+07
2.89028e+07
2.88745e+07
2.88471e+07
2.88206e+07
2.87952e+07
2.87709e+07
2.87479e+07
2.87263e+07
2.87061e+07
2.86876e+07
2.86707e+07
2.86557e+07
2.86426e+07
2.86315e+07
2.86225e+07
2.86157e+07
2.86112e+07
2.86089e+07
2.99824e+07
2.99471e+07
2.99118e+07
2.98766e+07
2.98414e+07
2.98061e+07
2.97709e+07
2.97358e+07
2.97006e+07
2.96655e+07
2.96305e+07
2.95955e+07
2.95605e+07
2.95257e+07
2.94909e+07
2.94562e+07
2.94216e+07
2.93871e+07
2.93527e+07
2.93185e+07
2.92845e+07
2.92506e+07
2.9217e+07
2.91836e+07
2.91505e+07
2.91177e+07
2.90852e+07
2.90531e+07
2.90215e+07
2.89904e+07
2.89598e+07
2.89298e+07
2.89005e+07
2.8872e+07
2.88443e+07
2.88175e+07
2.87918e+07
2.87673e+07
2.87439e+07
2.8722e+07
2.87015e+07
2.86827e+07
2.86655e+07
2.86502e+07
2.86368e+07
2.86255e+07
2.86163e+07
2.86094e+07
2.86047e+07
2.86024e+07
2.99824e+07
2.99471e+07
2.99118e+07
2.98765e+07
2.98413e+07
2.9806e+07
2.97708e+07
2.97356e+07
2.97005e+07
2.96654e+07
2.96303e+07
2.95952e+07
2.95603e+07
2.95254e+07
2.94905e+07
2.94558e+07
2.94211e+07
2.93866e+07
2.93521e+07
2.93178e+07
2.92837e+07
2.92498e+07
2.9216e+07
2.91825e+07
2.91493e+07
2.91163e+07
2.90837e+07
2.90514e+07
2.90196e+07
2.89882e+07
2.89573e+07
2.89271e+07
2.88975e+07
2.88686e+07
2.88406e+07
2.88135e+07
2.87874e+07
2.87624e+07
2.87387e+07
2.87163e+07
2.86954e+07
2.86761e+07
2.86585e+07
2.86428e+07
2.86291e+07
2.86175e+07
2.8608e+07
2.86008e+07
2.8596e+07
2.85936e+07
2.99823e+07
2.99471e+07
2.99118e+07
2.98765e+07
2.98412e+07
2.98059e+07
2.97707e+07
2.97355e+07
2.97003e+07
2.96651e+07
2.963e+07
2.9595e+07
2.95599e+07
2.9525e+07
2.94901e+07
2.94553e+07
2.94205e+07
2.93859e+07
2.93514e+07
2.9317e+07
2.92828e+07
2.92487e+07
2.92148e+07
2.91812e+07
2.91477e+07
2.91146e+07
2.90817e+07
2.90493e+07
2.90172e+07
2.89855e+07
2.89543e+07
2.89237e+07
2.88938e+07
2.88645e+07
2.88361e+07
2.88085e+07
2.87819e+07
2.87564e+07
2.87321e+07
2.87092e+07
2.86877e+07
2.86679e+07
2.86498e+07
2.86336e+07
2.86194e+07
2.86073e+07
2.85975e+07
2.85901e+07
2.85851e+07
2.85825e+07
2.99823e+07
2.9947e+07
2.99117e+07
2.98764e+07
2.98411e+07
2.98058e+07
2.97705e+07
2.97353e+07
2.97001e+07
2.96649e+07
2.96297e+07
2.95946e+07
2.95595e+07
2.95245e+07
2.94896e+07
2.94547e+07
2.94199e+07
2.93852e+07
2.93505e+07
2.9316e+07
2.92817e+07
2.92475e+07
2.92134e+07
2.91796e+07
2.9146e+07
2.91126e+07
2.90795e+07
2.90467e+07
2.90143e+07
2.89823e+07
2.89508e+07
2.89198e+07
2.88894e+07
2.88597e+07
2.88307e+07
2.88025e+07
2.87754e+07
2.87492e+07
2.87243e+07
2.87007e+07
2.86785e+07
2.8658e+07
2.86392e+07
2.86224e+07
2.86076e+07
2.8595e+07
2.85847e+07
2.85769e+07
2.85717e+07
2.85691e+07
2.99823e+07
2.9947e+07
2.99116e+07
2.98763e+07
2.9841e+07
2.98057e+07
2.97704e+07
2.97351e+07
2.96998e+07
2.96646e+07
2.96294e+07
2.95942e+07
2.95591e+07
2.9524e+07
2.9489e+07
2.9454e+07
2.94191e+07
2.93843e+07
2.93496e+07
2.9315e+07
2.92804e+07
2.92461e+07
2.92118e+07
2.91778e+07
2.91439e+07
2.91103e+07
2.90769e+07
2.90439e+07
2.90111e+07
2.89787e+07
2.89468e+07
2.89153e+07
2.88844e+07
2.88541e+07
2.88245e+07
2.87957e+07
2.87678e+07
2.87409e+07
2.87152e+07
2.86908e+07
2.86678e+07
2.86464e+07
2.86268e+07
2.86092e+07
2.85937e+07
2.85804e+07
2.85696e+07
2.85614e+07
2.85558e+07
2.8553e+07
2.99823e+07
2.99469e+07
2.99116e+07
2.98762e+07
2.98408e+07
2.98055e+07
2.97702e+07
2.97348e+07
2.96995e+07
2.96643e+07
2.9629e+07
2.95938e+07
2.95586e+07
2.95234e+07
2.94883e+07
2.94533e+07
2.94183e+07
2.93834e+07
2.93485e+07
2.93137e+07
2.92791e+07
2.92445e+07
2.92101e+07
2.91758e+07
2.91417e+07
2.91078e+07
2.90741e+07
2.90407e+07
2.90075e+07
2.89747e+07
2.89423e+07
2.89102e+07
2.88787e+07
2.88478e+07
2.88175e+07
2.87879e+07
2.87592e+07
2.87315e+07
2.87049e+07
2.86795e+07
2.86555e+07
2.86332e+07
2.86126e+07
2.8594e+07
2.85775e+07
2.85635e+07
2.8552e+07
2.85432e+07
2.85373e+07
2.85343e+07
2.99823e+07
2.99469e+07
2.99115e+07
2.98761e+07
2.98407e+07
2.98053e+07
2.977e+07
2.97346e+07
2.96993e+07
2.96639e+07
2.96286e+07
2.95933e+07
2.95581e+07
2.95228e+07
2.94877e+07
2.94525e+07
2.94174e+07
2.93823e+07
2.93474e+07
2.93124e+07
2.92776e+07
2.92428e+07
2.92082e+07
2.91737e+07
2.91393e+07
2.91051e+07
2.9071e+07
2.90372e+07
2.90036e+07
2.89703e+07
2.89373e+07
2.89047e+07
2.88725e+07
2.88409e+07
2.88098e+07
2.87794e+07
2.87497e+07
2.8721e+07
2.86933e+07
2.86668e+07
2.86417e+07
2.86182e+07
2.85964e+07
2.85767e+07
2.85592e+07
2.85441e+07
2.85318e+07
2.85224e+07
2.8516e+07
2.85128e+07
2.99823e+07
2.99468e+07
2.99114e+07
2.9876e+07
2.98406e+07
2.98051e+07
2.97697e+07
2.97343e+07
2.96989e+07
2.96636e+07
2.96282e+07
2.95928e+07
2.95575e+07
2.95222e+07
2.94869e+07
2.94517e+07
2.94165e+07
2.93813e+07
2.93461e+07
2.93111e+07
2.9276e+07
2.92411e+07
2.92062e+07
2.91714e+07
2.91367e+07
2.91022e+07
2.90678e+07
2.90335e+07
2.89995e+07
2.89656e+07
2.89321e+07
2.88988e+07
2.88659e+07
2.88334e+07
2.88014e+07
2.87701e+07
2.87394e+07
2.87095e+07
2.86806e+07
2.86528e+07
2.86264e+07
2.86015e+07
2.85783e+07
2.85572e+07
2.85384e+07
2.85222e+07
2.85088e+07
2.84986e+07
2.84916e+07
2.84881e+07
2.99823e+07
2.99468e+07
2.99113e+07
2.98759e+07
2.98404e+07
2.9805e+07
2.97695e+07
2.97341e+07
2.96986e+07
2.96632e+07
2.96278e+07
2.95923e+07
2.95569e+07
2.95215e+07
2.94862e+07
2.94508e+07
2.94155e+07
2.93802e+07
2.93449e+07
2.93096e+07
2.92744e+07
2.92392e+07
2.92041e+07
2.9169e+07
2.9134e+07
2.90991e+07
2.90643e+07
2.90296e+07
2.89951e+07
2.89607e+07
2.89265e+07
2.88925e+07
2.88588e+07
2.88255e+07
2.87925e+07
2.87601e+07
2.87282e+07
2.86971e+07
2.86668e+07
2.86376e+07
2.86096e+07
2.85831e+07
2.85583e+07
2.85356e+07
2.85152e+07
2.84975e+07
2.84829e+07
2.84716e+07
2.8464e+07
2.84601e+07
2.99823e+07
2.99468e+07
2.99113e+07
2.98758e+07
2.98403e+07
2.98048e+07
2.97693e+07
2.97338e+07
2.96983e+07
2.96628e+07
2.96273e+07
2.95918e+07
2.95563e+07
2.95209e+07
2.94854e+07
2.94499e+07
2.94145e+07
2.9379e+07
2.93436e+07
2.93081e+07
2.92727e+07
2.92373e+07
2.92019e+07
2.91666e+07
2.91313e+07
2.9096e+07
2.90608e+07
2.90256e+07
2.89905e+07
2.89555e+07
2.89207e+07
2.8886e+07
2.88514e+07
2.88172e+07
2.87832e+07
2.87496e+07
2.87164e+07
2.86839e+07
2.86521e+07
2.86212e+07
2.85914e+07
2.8563e+07
2.85363e+07
2.85116e+07
2.84894e+07
2.84699e+07
2.84538e+07
2.84412e+07
2.84326e+07
2.84283e+07
2.99822e+07
2.99467e+07
2.99112e+07
2.98756e+07
2.98401e+07
2.98046e+07
2.9769e+07
2.97335e+07
2.9698e+07
2.96624e+07
2.96269e+07
2.95913e+07
2.95557e+07
2.95202e+07
2.94846e+07
2.9449e+07
2.94134e+07
2.93779e+07
2.93423e+07
2.93066e+07
2.9271e+07
2.92354e+07
2.91998e+07
2.91641e+07
2.91285e+07
2.90928e+07
2.90572e+07
2.90215e+07
2.89859e+07
2.89503e+07
2.89147e+07
2.88792e+07
2.88438e+07
2.88085e+07
2.87734e+07
2.87386e+07
2.8704e+07
2.86699e+07
2.86364e+07
2.86036e+07
2.85718e+07
2.85413e+07
2.85123e+07
2.84854e+07
2.84608e+07
2.84392e+07
2.84211e+07
2.8407e+07
2.83973e+07
2.83924e+07
2.99822e+07
2.99467e+07
2.99111e+07
2.98755e+07
2.984e+07
2.98044e+07
2.97688e+07
2.97332e+07
2.96976e+07
2.9662e+07
2.96264e+07
2.95908e+07
2.95552e+07
2.95195e+07
2.94838e+07
2.94482e+07
2.94124e+07
2.93767e+07
2.9341e+07
2.93052e+07
2.92693e+07
2.92335e+07
2.91976e+07
2.91617e+07
2.91257e+07
2.90896e+07
2.90536e+07
2.90174e+07
2.89812e+07
2.8945e+07
2.89087e+07
2.88724e+07
2.88361e+07
2.87997e+07
2.87635e+07
2.87273e+07
2.86912e+07
2.86554e+07
2.862e+07
2.85852e+07
2.85511e+07
2.85181e+07
2.84865e+07
2.84568e+07
2.84295e+07
2.84052e+07
2.83847e+07
2.83685e+07
2.83574e+07
2.83517e+07
2.99822e+07
2.99466e+07
2.9911e+07
2.98754e+07
2.98398e+07
2.98042e+07
2.97686e+07
2.97329e+07
2.96973e+07
2.96616e+07
2.9626e+07
2.95903e+07
2.95546e+07
2.95188e+07
2.94831e+07
2.94473e+07
2.94115e+07
2.93756e+07
2.93397e+07
2.93037e+07
2.92677e+07
2.92316e+07
2.91955e+07
2.91592e+07
2.91229e+07
2.90865e+07
2.905e+07
2.90134e+07
2.89766e+07
2.89398e+07
2.89027e+07
2.88656e+07
2.88283e+07
2.87909e+07
2.87534e+07
2.87158e+07
2.86782e+07
2.86406e+07
2.86031e+07
2.8566e+07
2.85329e+07
2.85083e+07
2.84741e+07
2.84415e+07
2.8411e+07
2.83835e+07
2.83596e+07
2.83402e+07
2.83262e+07
2.83181e+07
2.99822e+07
2.99466e+07
2.99109e+07
2.98753e+07
2.98397e+07
2.9804e+07
2.97684e+07
2.97327e+07
2.9697e+07
2.96613e+07
2.96256e+07
2.95898e+07
2.9554e+07
2.95182e+07
2.94824e+07
2.94465e+07
2.94105e+07
2.93745e+07
2.93385e+07
2.93023e+07
2.92661e+07
2.92298e+07
2.91934e+07
2.91569e+07
2.91203e+07
2.90835e+07
2.90465e+07
2.90094e+07
2.89721e+07
2.89346e+07
2.88969e+07
2.88589e+07
2.88207e+07
2.87822e+07
2.87434e+07
2.87044e+07
2.86651e+07
2.86256e+07
2.85859e+07
2.85462e+07
2.8511e+07
2.84836e+07
2.8446e+07
2.84098e+07
2.83755e+07
2.8344e+07
2.83164e+07
2.82936e+07
2.82769e+07
2.82673e+07
2.99822e+07
2.99465e+07
2.99109e+07
2.98752e+07
2.98395e+07
2.98038e+07
2.97681e+07
2.97324e+07
2.96967e+07
2.96609e+07
2.96252e+07
2.95894e+07
2.95535e+07
2.95176e+07
2.94817e+07
2.94457e+07
2.94096e+07
2.93735e+07
2.93373e+07
2.9301e+07
2.92646e+07
2.92281e+07
2.91915e+07
2.91547e+07
2.91177e+07
2.90806e+07
2.90433e+07
2.90057e+07
2.89679e+07
2.89297e+07
2.88913e+07
2.88525e+07
2.88133e+07
2.87737e+07
2.87337e+07
2.86932e+07
2.86522e+07
2.86107e+07
2.85687e+07
2.85264e+07
2.84888e+07
2.84582e+07
2.84168e+07
2.83763e+07
2.83373e+07
2.8301e+07
2.82684e+07
2.82412e+07
2.82209e+07
2.82091e+07
2.99822e+07
2.99465e+07
2.99108e+07
2.98751e+07
2.98394e+07
2.98037e+07
2.9768e+07
2.97322e+07
2.96964e+07
2.96606e+07
2.96248e+07
2.95889e+07
2.9553e+07
2.95171e+07
2.9481e+07
2.9445e+07
2.94088e+07
2.93726e+07
2.93362e+07
2.92998e+07
2.92632e+07
2.92265e+07
2.91897e+07
2.91526e+07
2.91154e+07
2.90779e+07
2.90402e+07
2.90022e+07
2.89638e+07
2.89251e+07
2.8886e+07
2.88465e+07
2.88064e+07
2.87657e+07
2.87244e+07
2.86825e+07
2.86398e+07
2.85963e+07
2.85519e+07
2.85068e+07
2.84669e+07
2.84324e+07
2.83867e+07
2.83413e+07
2.82967e+07
2.82429e+07
2.82036e+07
2.81702e+07
2.81453e+07
2.81313e+07
2.99821e+07
2.99464e+07
2.99107e+07
2.9875e+07
2.98393e+07
2.98035e+07
2.97678e+07
2.9732e+07
2.96962e+07
2.96604e+07
2.96245e+07
2.95886e+07
2.95526e+07
2.95166e+07
2.94805e+07
2.94443e+07
2.94081e+07
2.93717e+07
2.93353e+07
2.92987e+07
2.9262e+07
2.92251e+07
2.9188e+07
2.91507e+07
2.91132e+07
2.90755e+07
2.90374e+07
2.8999e+07
2.89602e+07
2.89209e+07
2.88812e+07
2.88409e+07
2.88e+07
2.87583e+07
2.87158e+07
2.86725e+07
2.86281e+07
2.85826e+07
2.85359e+07
2.84879e+07
2.84457e+07
2.84068e+07
2.83565e+07
2.83054e+07
2.82543e+07
2.81914e+07
2.81435e+07
2.81013e+07
2.80689e+07
2.80501e+07
2.99821e+07
2.99464e+07
2.99107e+07
2.98749e+07
2.98392e+07
2.98034e+07
2.97676e+07
2.97318e+07
2.9696e+07
2.96601e+07
2.96242e+07
2.95882e+07
2.95522e+07
2.95161e+07
2.948e+07
2.94437e+07
2.94074e+07
2.9371e+07
2.93344e+07
2.92977e+07
2.92608e+07
2.92238e+07
2.91866e+07
2.91491e+07
2.91114e+07
2.90733e+07
2.90349e+07
2.89962e+07
2.89569e+07
2.89172e+07
2.88769e+07
2.88359e+07
2.87942e+07
2.87516e+07
2.87081e+07
2.86634e+07
2.86175e+07
2.85702e+07
2.85212e+07
2.84704e+07
2.8426e+07
2.83823e+07
2.83269e+07
2.82696e+07
2.82109e+07
2.81372e+07
2.80779e+07
2.80233e+07
2.79791e+07
2.79525e+07
2.99821e+07
2.99464e+07
2.99106e+07
2.98749e+07
2.98391e+07
2.98033e+07
2.97675e+07
2.97317e+07
2.96958e+07
2.96599e+07
2.96239e+07
2.95879e+07
2.95519e+07
2.95158e+07
2.94795e+07
2.94432e+07
2.94069e+07
2.93703e+07
2.93337e+07
2.92969e+07
2.92599e+07
2.92227e+07
2.91854e+07
2.91477e+07
2.91098e+07
2.90715e+07
2.90328e+07
2.89938e+07
2.89542e+07
2.8914e+07
2.88732e+07
2.88317e+07
2.87893e+07
2.87459e+07
2.87014e+07
2.86556e+07
2.86083e+07
2.85592e+07
2.85082e+07
2.84548e+07
2.84086e+07
2.83597e+07
2.82992e+07
2.82354e+07
2.81682e+07
2.8082e+07
2.8008e+07
2.79356e+07
2.78724e+07
2.78314e+07
2.99821e+07
2.99464e+07
2.99106e+07
2.98748e+07
2.9839e+07
2.98032e+07
2.97674e+07
2.97316e+07
2.96957e+07
2.96597e+07
2.96238e+07
2.95877e+07
2.95516e+07
2.95155e+07
2.94792e+07
2.94429e+07
2.94064e+07
2.93698e+07
2.93331e+07
2.92962e+07
2.92592e+07
2.92219e+07
2.91844e+07
2.91466e+07
2.91085e+07
2.907e+07
2.90312e+07
2.89918e+07
2.8952e+07
2.89115e+07
2.88703e+07
2.88283e+07
2.87853e+07
2.87413e+07
2.8696e+07
2.86492e+07
2.86007e+07
2.85502e+07
2.84974e+07
2.84417e+07
2.83942e+07
2.834e+07
2.82747e+07
2.82045e+07
2.81285e+07
2.80289e+07
2.79371e+07
2.78399e+07
2.77479e+07
2.76646e+07
2.99821e+07
2.99464e+07
2.99106e+07
2.98748e+07
2.9839e+07
2.98032e+07
2.97673e+07
2.97315e+07
2.96956e+07
2.96596e+07
2.96236e+07
2.95876e+07
2.95514e+07
2.95152e+07
2.9479e+07
2.94426e+07
2.94061e+07
2.93695e+07
2.93327e+07
2.92958e+07
2.92586e+07
2.92213e+07
2.91837e+07
2.91458e+07
2.91076e+07
2.9069e+07
2.903e+07
2.89904e+07
2.89504e+07
2.89096e+07
2.88681e+07
2.88258e+07
2.87824e+07
2.87379e+07
2.8692e+07
2.86445e+07
2.85951e+07
2.85435e+07
2.84893e+07
2.84318e+07
2.83837e+07
2.83244e+07
2.8255e+07
2.81791e+07
2.80951e+07
2.79829e+07
2.78721e+07
2.77444e+07
2.75987e+07
2.74424e+07
2.99821e+07
2.99463e+07
2.99106e+07
2.98748e+07
2.9839e+07
2.98031e+07
2.97673e+07
2.97314e+07
2.96955e+07
2.96595e+07
2.96235e+07
2.95875e+07
2.95513e+07
2.95151e+07
2.94788e+07
2.94424e+07
2.94059e+07
2.93692e+07
2.93324e+07
2.92955e+07
2.92583e+07
2.92209e+07
2.91832e+07
2.91453e+07
2.9107e+07
2.90683e+07
2.90292e+07
2.89896e+07
2.89493e+07
2.89085e+07
2.88668e+07
2.88242e+07
2.87806e+07
2.87357e+07
2.86895e+07
2.86415e+07
2.85916e+07
2.85393e+07
2.84841e+07
2.84256e+07
2.83774e+07
2.83137e+07
2.82414e+07
2.81613e+07
2.80711e+07
2.79498e+07
2.78231e+07
2.76669e+07
2.74724e+07
2.71856e+07
2.99821e+07
2.99463e+07
2.99106e+07
2.98748e+07
2.9839e+07
2.98031e+07
2.97673e+07
2.97314e+07
2.96955e+07
2.96595e+07
2.96235e+07
2.95874e+07
2.95513e+07
2.95151e+07
2.94788e+07
2.94424e+07
2.94058e+07
2.93692e+07
2.93324e+07
2.92954e+07
2.92582e+07
2.92208e+07
2.91831e+07
2.91451e+07
2.91068e+07
2.90681e+07
2.90289e+07
2.89893e+07
2.8949e+07
2.89081e+07
2.88663e+07
2.88237e+07
2.878e+07
2.8735e+07
2.86886e+07
2.86405e+07
2.85904e+07
2.85378e+07
2.84824e+07
2.84234e+07
2.83762e+07
2.83089e+07
2.82352e+07
2.81531e+07
2.806e+07
2.79358e+07
2.78018e+07
2.76318e+07
2.7418e+07
2.70915e+07
2.99821e+07
2.99463e+07
2.99106e+07
2.98748e+07
2.9839e+07
2.98031e+07
2.97673e+07
2.97314e+07
2.96955e+07
2.96595e+07
2.96235e+07
2.95875e+07
2.95513e+07
2.95151e+07
2.94788e+07
2.94424e+07
2.94059e+07
2.93692e+07
2.93324e+07
2.92955e+07
2.92583e+07
2.92209e+07
2.91832e+07
2.91453e+07
2.9107e+07
2.90683e+07
2.90292e+07
2.89896e+07
2.89493e+07
2.89085e+07
2.88668e+07
2.88242e+07
2.87806e+07
2.87357e+07
2.86895e+07
2.86415e+07
2.85916e+07
2.85393e+07
2.84841e+07
2.84256e+07
2.838e+07
2.83105e+07
2.82373e+07
2.81559e+07
2.80638e+07
2.79443e+07
2.78147e+07
2.76532e+07
2.74606e+07
2.71635e+07
2.99821e+07
2.99464e+07
2.99106e+07
2.98748e+07
2.9839e+07
2.98032e+07
2.97673e+07
2.97315e+07
2.96956e+07
2.96596e+07
2.96236e+07
2.95876e+07
2.95514e+07
2.95152e+07
2.9479e+07
2.94426e+07
2.94061e+07
2.93695e+07
2.93327e+07
2.92958e+07
2.92586e+07
2.92213e+07
2.91837e+07
2.91458e+07
2.91076e+07
2.9069e+07
2.903e+07
2.89904e+07
2.89504e+07
2.89096e+07
2.88681e+07
2.88258e+07
2.87824e+07
2.87379e+07
2.8692e+07
2.86445e+07
2.85951e+07
2.85435e+07
2.84893e+07
2.84318e+07
2.83885e+07
2.83184e+07
2.82474e+07
2.81691e+07
2.80817e+07
2.79732e+07
2.78579e+07
2.77224e+07
2.75814e+07
2.7409e+07
2.99821e+07
2.99464e+07
2.99106e+07
2.98748e+07
2.9839e+07
2.98032e+07
2.97674e+07
2.97316e+07
2.96957e+07
2.96597e+07
2.96238e+07
2.95877e+07
2.95516e+07
2.95155e+07
2.94792e+07
2.94429e+07
2.94064e+07
2.93698e+07
2.93331e+07
2.92962e+07
2.92592e+07
2.92219e+07
2.91844e+07
2.91466e+07
2.91085e+07
2.907e+07
2.90312e+07
2.89918e+07
2.8952e+07
2.89115e+07
2.88703e+07
2.88283e+07
2.87853e+07
2.87413e+07
2.8696e+07
2.86492e+07
2.86007e+07
2.85502e+07
2.84974e+07
2.84417e+07
2.84011e+07
2.83316e+07
2.82642e+07
2.8191e+07
2.81108e+07
2.80166e+07
2.79199e+07
2.78155e+07
2.77245e+07
2.76409e+07
2.99821e+07
2.99464e+07
2.99106e+07
2.98749e+07
2.98391e+07
2.98033e+07
2.97675e+07
2.97317e+07
2.96958e+07
2.96599e+07
2.96239e+07
2.95879e+07
2.95519e+07
2.95158e+07
2.94795e+07
2.94432e+07
2.94069e+07
2.93703e+07
2.93337e+07
2.92969e+07
2.92599e+07
2.92227e+07
2.91854e+07
2.91477e+07
2.91098e+07
2.90715e+07
2.90328e+07
2.89938e+07
2.89542e+07
2.8914e+07
2.88732e+07
2.88317e+07
2.87893e+07
2.87459e+07
2.87014e+07
2.86556e+07
2.86083e+07
2.85592e+07
2.85082e+07
2.84548e+07
2.84171e+07
2.83494e+07
2.82865e+07
2.82194e+07
2.81478e+07
2.80684e+07
2.79902e+07
2.79123e+07
2.78425e+07
2.77962e+07
2.99821e+07
2.99464e+07
2.99107e+07
2.98749e+07
2.98392e+07
2.98034e+07
2.97676e+07
2.97318e+07
2.9696e+07
2.96601e+07
2.96242e+07
2.95882e+07
2.95522e+07
2.95161e+07
2.948e+07
2.94437e+07
2.94074e+07
2.9371e+07
2.93344e+07
2.92977e+07
2.92608e+07
2.92238e+07
2.91866e+07
2.91491e+07
2.91114e+07
2.90733e+07
2.90349e+07
2.89962e+07
2.89569e+07
2.89172e+07
2.88769e+07
2.88359e+07
2.87942e+07
2.87516e+07
2.87081e+07
2.86634e+07
2.86175e+07
2.85702e+07
2.85212e+07
2.84704e+07
2.84357e+07
2.83707e+07
2.83127e+07
2.82522e+07
2.81893e+07
2.81234e+07
2.80607e+07
2.80023e+07
2.79542e+07
2.79248e+07
2.99821e+07
2.99464e+07
2.99107e+07
2.9875e+07
2.98393e+07
2.98035e+07
2.97678e+07
2.9732e+07
2.96962e+07
2.96604e+07
2.96245e+07
2.95886e+07
2.95526e+07
2.95166e+07
2.94805e+07
2.94443e+07
2.94081e+07
2.93717e+07
2.93353e+07
2.92987e+07
2.9262e+07
2.92251e+07
2.9188e+07
2.91507e+07
2.91132e+07
2.90755e+07
2.90374e+07
2.8999e+07
2.89602e+07
2.89209e+07
2.88812e+07
2.88409e+07
2.88e+07
2.87583e+07
2.87158e+07
2.86725e+07
2.86281e+07
2.85826e+07
2.85359e+07
2.84879e+07
2.84562e+07
2.83944e+07
2.83415e+07
2.82874e+07
2.82326e+07
2.81781e+07
2.81276e+07
2.80827e+07
2.80478e+07
2.80274e+07
2.99822e+07
2.99465e+07
2.99108e+07
2.98751e+07
2.98394e+07
2.98037e+07
2.9768e+07
2.97322e+07
2.96964e+07
2.96606e+07
2.96248e+07
2.95889e+07
2.9553e+07
2.95171e+07
2.9481e+07
2.9445e+07
2.94088e+07
2.93726e+07
2.93362e+07
2.92998e+07
2.92632e+07
2.92265e+07
2.91897e+07
2.91526e+07
2.91154e+07
2.90779e+07
2.90402e+07
2.90022e+07
2.89638e+07
2.89251e+07
2.8886e+07
2.88465e+07
2.88064e+07
2.87657e+07
2.87244e+07
2.86825e+07
2.86398e+07
2.85963e+07
2.85519e+07
2.85068e+07
2.84779e+07
2.84195e+07
2.83716e+07
2.83234e+07
2.82757e+07
2.82303e+07
2.81891e+07
2.81538e+07
2.81273e+07
2.81122e+07
2.99822e+07
2.99465e+07
2.99109e+07
2.98752e+07
2.98395e+07
2.98038e+07
2.97681e+07
2.97324e+07
2.96967e+07
2.96609e+07
2.96252e+07
2.95894e+07
2.95535e+07
2.95176e+07
2.94817e+07
2.94457e+07
2.94096e+07
2.93735e+07
2.93373e+07
2.9301e+07
2.92646e+07
2.92281e+07
2.91915e+07
2.91547e+07
2.91177e+07
2.90806e+07
2.90433e+07
2.90057e+07
2.89679e+07
2.89297e+07
2.88913e+07
2.88525e+07
2.88133e+07
2.87737e+07
2.87337e+07
2.86932e+07
2.86522e+07
2.86107e+07
2.85687e+07
2.85264e+07
2.85e+07
2.84453e+07
2.84018e+07
2.83589e+07
2.83173e+07
2.82781e+07
2.82425e+07
2.82125e+07
2.819e+07
2.81767e+07
2.99822e+07
2.99466e+07
2.99109e+07
2.98753e+07
2.98397e+07
2.9804e+07
2.97684e+07
2.97327e+07
2.9697e+07
2.96613e+07
2.96256e+07
2.95898e+07
2.9554e+07
2.95182e+07
2.94824e+07
2.94465e+07
2.94105e+07
2.93745e+07
2.93385e+07
2.93023e+07
2.92661e+07
2.92298e+07
2.91934e+07
2.91569e+07
2.91203e+07
2.90835e+07
2.90465e+07
2.90094e+07
2.89721e+07
2.89346e+07
2.88969e+07
2.88589e+07
2.88207e+07
2.87822e+07
2.87434e+07
2.87044e+07
2.86651e+07
2.86256e+07
2.85859e+07
2.85462e+07
2.85221e+07
2.8471e+07
2.84315e+07
2.83932e+07
2.83568e+07
2.8323e+07
2.8293e+07
2.82682e+07
2.82499e+07
2.82393e+07
2.99822e+07
2.99466e+07
2.9911e+07
2.98754e+07
2.98398e+07
2.98042e+07
2.97686e+07
2.97329e+07
2.96973e+07
2.96616e+07
2.9626e+07
2.95903e+07
2.95546e+07
2.95188e+07
2.94831e+07
2.94473e+07
2.94115e+07
2.93756e+07
2.93397e+07
2.93037e+07
2.92677e+07
2.92316e+07
2.91955e+07
2.91592e+07
2.91229e+07
2.90865e+07
2.905e+07
2.90134e+07
2.89766e+07
2.89398e+07
2.89027e+07
2.88656e+07
2.88283e+07
2.87909e+07
2.87534e+07
2.87158e+07
2.86782e+07
2.86406e+07
2.86031e+07
2.8566e+07
2.85435e+07
2.84961e+07
2.84602e+07
2.84259e+07
2.83936e+07
2.83642e+07
2.83385e+07
2.83176e+07
2.83023e+07
2.82936e+07
2.99822e+07
2.99467e+07
2.99111e+07
2.98755e+07
2.984e+07
2.98044e+07
2.97688e+07
2.97332e+07
2.96976e+07
2.9662e+07
2.96264e+07
2.95908e+07
2.95552e+07
2.95195e+07
2.94838e+07
2.94482e+07
2.94124e+07
2.93767e+07
2.9341e+07
2.93052e+07
2.92693e+07
2.92335e+07
2.91976e+07
2.91617e+07
2.91257e+07
2.90896e+07
2.90536e+07
2.90174e+07
2.89812e+07
2.8945e+07
2.89087e+07
2.88724e+07
2.88361e+07
2.87997e+07
2.87635e+07
2.87273e+07
2.86912e+07
2.86554e+07
2.862e+07
2.85852e+07
2.85511e+07
2.85181e+07
2.84865e+07
2.84568e+07
2.84295e+07
2.84052e+07
2.83847e+07
2.83685e+07
2.83574e+07
2.83517e+07
2.99822e+07
2.99467e+07
2.99112e+07
2.98756e+07
2.98401e+07
2.98046e+07
2.9769e+07
2.97335e+07
2.9698e+07
2.96624e+07
2.96269e+07
2.95913e+07
2.95557e+07
2.95202e+07
2.94846e+07
2.9449e+07
2.94134e+07
2.93779e+07
2.93423e+07
2.93066e+07
2.9271e+07
2.92354e+07
2.91998e+07
2.91641e+07
2.91285e+07
2.90928e+07
2.90572e+07
2.90215e+07
2.89859e+07
2.89503e+07
2.89147e+07
2.88792e+07
2.88438e+07
2.88085e+07
2.87734e+07
2.87386e+07
2.8704e+07
2.86699e+07
2.86364e+07
2.86036e+07
2.85718e+07
2.85413e+07
2.85123e+07
2.84854e+07
2.84608e+07
2.84392e+07
2.84211e+07
2.8407e+07
2.83973e+07
2.83924e+07
2.99823e+07
2.99468e+07
2.99113e+07
2.98758e+07
2.98403e+07
2.98048e+07
2.97693e+07
2.97338e+07
2.96983e+07
2.96628e+07
2.96273e+07
2.95918e+07
2.95563e+07
2.95209e+07
2.94854e+07
2.94499e+07
2.94145e+07
2.9379e+07
2.93436e+07
2.93081e+07
2.92727e+07
2.92373e+07
2.92019e+07
2.91666e+07
2.91313e+07
2.9096e+07
2.90608e+07
2.90256e+07
2.89905e+07
2.89555e+07
2.89207e+07
2.8886e+07
2.88514e+07
2.88172e+07
2.87832e+07
2.87496e+07
2.87164e+07
2.86839e+07
2.86521e+07
2.86212e+07
2.85914e+07
2.8563e+07
2.85363e+07
2.85116e+07
2.84894e+07
2.84699e+07
2.84538e+07
2.84412e+07
2.84326e+07
2.84283e+07
2.99823e+07
2.99468e+07
2.99113e+07
2.98759e+07
2.98404e+07
2.9805e+07
2.97695e+07
2.97341e+07
2.96986e+07
2.96632e+07
2.96278e+07
2.95923e+07
2.95569e+07
2.95215e+07
2.94862e+07
2.94508e+07
2.94155e+07
2.93802e+07
2.93449e+07
2.93096e+07
2.92744e+07
2.92392e+07
2.92041e+07
2.9169e+07
2.9134e+07
2.90991e+07
2.90643e+07
2.90296e+07
2.89951e+07
2.89607e+07
2.89265e+07
2.88925e+07
2.88588e+07
2.88255e+07
2.87925e+07
2.87601e+07
2.87282e+07
2.86971e+07
2.86668e+07
2.86376e+07
2.86096e+07
2.85831e+07
2.85583e+07
2.85356e+07
2.85152e+07
2.84975e+07
2.84829e+07
2.84716e+07
2.8464e+07
2.84601e+07
2.99823e+07
2.99468e+07
2.99114e+07
2.9876e+07
2.98406e+07
2.98051e+07
2.97697e+07
2.97343e+07
2.96989e+07
2.96636e+07
2.96282e+07
2.95928e+07
2.95575e+07
2.95222e+07
2.94869e+07
2.94517e+07
2.94165e+07
2.93813e+07
2.93461e+07
2.93111e+07
2.9276e+07
2.92411e+07
2.92062e+07
2.91714e+07
2.91367e+07
2.91022e+07
2.90678e+07
2.90335e+07
2.89995e+07
2.89656e+07
2.89321e+07
2.88988e+07
2.88659e+07
2.88334e+07
2.88014e+07
2.87701e+07
2.87394e+07
2.87095e+07
2.86806e+07
2.86528e+07
2.86264e+07
2.86015e+07
2.85783e+07
2.85572e+07
2.85384e+07
2.85222e+07
2.85088e+07
2.84986e+07
2.84916e+07
2.84881e+07
2.99823e+07
2.99469e+07
2.99115e+07
2.98761e+07
2.98407e+07
2.98053e+07
2.977e+07
2.97346e+07
2.96993e+07
2.96639e+07
2.96286e+07
2.95933e+07
2.95581e+07
2.95228e+07
2.94877e+07
2.94525e+07
2.94174e+07
2.93823e+07
2.93474e+07
2.93124e+07
2.92776e+07
2.92428e+07
2.92082e+07
2.91737e+07
2.91393e+07
2.91051e+07
2.9071e+07
2.90372e+07
2.90036e+07
2.89703e+07
2.89373e+07
2.89047e+07
2.88725e+07
2.88409e+07
2.88098e+07
2.87794e+07
2.87497e+07
2.8721e+07
2.86933e+07
2.86668e+07
2.86417e+07
2.86182e+07
2.85964e+07
2.85767e+07
2.85592e+07
2.85441e+07
2.85318e+07
2.85224e+07
2.8516e+07
2.85128e+07
2.99823e+07
2.99469e+07
2.99116e+07
2.98762e+07
2.98408e+07
2.98055e+07
2.97702e+07
2.97348e+07
2.96995e+07
2.96643e+07
2.9629e+07
2.95938e+07
2.95586e+07
2.95234e+07
2.94883e+07
2.94533e+07
2.94183e+07
2.93834e+07
2.93485e+07
2.93137e+07
2.92791e+07
2.92445e+07
2.92101e+07
2.91758e+07
2.91417e+07
2.91078e+07
2.90741e+07
2.90407e+07
2.90075e+07
2.89747e+07
2.89423e+07
2.89102e+07
2.88787e+07
2.88478e+07
2.88175e+07
2.87879e+07
2.87592e+07
2.87315e+07
2.87049e+07
2.86795e+07
2.86555e+07
2.86332e+07
2.86126e+07
2.8594e+07
2.85775e+07
2.85635e+07
2.8552e+07
2.85432e+07
2.85373e+07
2.85343e+07
2.99823e+07
2.9947e+07
2.99116e+07
2.98763e+07
2.9841e+07
2.98057e+07
2.97704e+07
2.97351e+07
2.96998e+07
2.96646e+07
2.96294e+07
2.95942e+07
2.95591e+07
2.9524e+07
2.9489e+07
2.9454e+07
2.94191e+07
2.93843e+07
2.93496e+07
2.9315e+07
2.92804e+07
2.92461e+07
2.92118e+07
2.91778e+07
2.91439e+07
2.91103e+07
2.90769e+07
2.90439e+07
2.90111e+07
2.89787e+07
2.89468e+07
2.89153e+07
2.88844e+07
2.88541e+07
2.88245e+07
2.87957e+07
2.87678e+07
2.87409e+07
2.87152e+07
2.86908e+07
2.86678e+07
2.86464e+07
2.86268e+07
2.86092e+07
2.85937e+07
2.85804e+07
2.85696e+07
2.85614e+07
2.85558e+07
2.8553e+07
2.99823e+07
2.9947e+07
2.99117e+07
2.98764e+07
2.98411e+07
2.98058e+07
2.97705e+07
2.97353e+07
2.97001e+07
2.96649e+07
2.96297e+07
2.95946e+07
2.95595e+07
2.95245e+07
2.94896e+07
2.94547e+07
2.94199e+07
2.93852e+07
2.93505e+07
2.9316e+07
2.92817e+07
2.92475e+07
2.92134e+07
2.91796e+07
2.9146e+07
2.91126e+07
2.90795e+07
2.90467e+07
2.90143e+07
2.89823e+07
2.89508e+07
2.89198e+07
2.88894e+07
2.88597e+07
2.88307e+07
2.88025e+07
2.87754e+07
2.87492e+07
2.87243e+07
2.87007e+07
2.86785e+07
2.8658e+07
2.86392e+07
2.86224e+07
2.86076e+07
2.8595e+07
2.85847e+07
2.85769e+07
2.85717e+07
2.85691e+07
2.99823e+07
2.99471e+07
2.99118e+07
2.98765e+07
2.98412e+07
2.98059e+07
2.97707e+07
2.97355e+07
2.97003e+07
2.96651e+07
2.963e+07
2.9595e+07
2.95599e+07
2.9525e+07
2.94901e+07
2.94553e+07
2.94205e+07
2.93859e+07
2.93514e+07
2.9317e+07
2.92828e+07
2.92487e+07
2.92148e+07
2.91812e+07
2.91477e+07
2.91146e+07
2.90817e+07
2.90493e+07
2.90172e+07
2.89855e+07
2.89543e+07
2.89237e+07
2.88938e+07
2.88645e+07
2.88361e+07
2.88085e+07
2.87819e+07
2.87564e+07
2.87321e+07
2.87092e+07
2.86877e+07
2.86679e+07
2.86498e+07
2.86336e+07
2.86194e+07
2.86073e+07
2.85975e+07
2.85901e+07
2.85851e+07
2.85825e+07
2.99824e+07
2.99471e+07
2.99118e+07
2.98765e+07
2.98413e+07
2.9806e+07
2.97708e+07
2.97356e+07
2.97005e+07
2.96654e+07
2.96303e+07
2.95952e+07
2.95603e+07
2.95254e+07
2.94905e+07
2.94558e+07
2.94211e+07
2.93866e+07
2.93521e+07
2.93178e+07
2.92837e+07
2.92498e+07
2.9216e+07
2.91825e+07
2.91493e+07
2.91163e+07
2.90837e+07
2.90514e+07
2.90196e+07
2.89882e+07
2.89573e+07
2.89271e+07
2.88975e+07
2.88686e+07
2.88406e+07
2.88135e+07
2.87874e+07
2.87624e+07
2.87387e+07
2.87163e+07
2.86954e+07
2.86761e+07
2.86585e+07
2.86428e+07
2.86291e+07
2.86175e+07
2.8608e+07
2.86008e+07
2.8596e+07
2.85936e+07
2.99824e+07
2.99471e+07
2.99118e+07
2.98766e+07
2.98414e+07
2.98061e+07
2.97709e+07
2.97358e+07
2.97006e+07
2.96655e+07
2.96305e+07
2.95955e+07
2.95605e+07
2.95257e+07
2.94909e+07
2.94562e+07
2.94216e+07
2.93871e+07
2.93527e+07
2.93185e+07
2.92845e+07
2.92506e+07
2.9217e+07
2.91836e+07
2.91505e+07
2.91177e+07
2.90852e+07
2.90531e+07
2.90215e+07
2.89904e+07
2.89598e+07
2.89298e+07
2.89005e+07
2.8872e+07
2.88443e+07
2.88175e+07
2.87918e+07
2.87673e+07
2.87439e+07
2.8722e+07
2.87015e+07
2.86827e+07
2.86655e+07
2.86502e+07
2.86368e+07
2.86255e+07
2.86163e+07
2.86094e+07
2.86047e+07
2.86024e+07
2.99824e+07
2.99471e+07
2.99119e+07
2.98766e+07
2.98414e+07
2.98062e+07
2.9771e+07
2.97359e+07
2.97008e+07
2.96657e+07
2.96307e+07
2.95957e+07
2.95608e+07
2.95259e+07
2.94912e+07
2.94565e+07
2.94219e+07
2.93875e+07
2.93532e+07
2.9319e+07
2.92851e+07
2.92513e+07
2.92177e+07
2.91844e+07
2.91514e+07
2.91187e+07
2.90864e+07
2.90545e+07
2.9023e+07
2.8992e+07
2.89616e+07
2.89318e+07
2.89028e+07
2.88745e+07
2.88471e+07
2.88206e+07
2.87952e+07
2.87709e+07
2.87479e+07
2.87263e+07
2.87061e+07
2.86876e+07
2.86707e+07
2.86557e+07
2.86426e+07
2.86315e+07
2.86225e+07