/*--------------------------------*- C++ -*----------------------------------*\
| =========                 |                                                 |
| \\      /  F ield         | foam-extend: Open Source CFD                    |
|  \\    /   O peration     | Version:     4.0                                |
|   \\  /    A nd           | Web:         http://www.foam-extend.org         |
|    \\/     M anipulation  |                                                 |
\*---------------------------------------------------------------------------*/
FoamFile
{
    version     2.0;
    format      ascii;
    class       surfaceScalarField;
    location    "0.00200001";
    object      phi;
}
// * * * * * * * * * * * * * * * * * * * * * * * * * * * * * * * * * * * * * //

dimensions      [0 3 -1 0 0 0 0];

internalField   nonuniform List<scalar> 
57362
(
5.97717e-06
3.51637e-10
5.97611e-06
1.05914e-09
5.97433e-06
1.78336e-09
5.97179e-06
2.53503e-09
5.96847e-06
3.32571e-09
5.9643e-06
4.16747e-09
5.95923e-06
5.07312e-09
5.95317e-06
6.05636e-09
5.94604e-06
7.13197e-09
5.93772e-06
8.316e-09
5.92809e-06
9.62595e-09
5.91701e-06
1.1081e-08
5.90431e-06
1.27022e-08
5.8898e-06
1.45126e-08
5.87326e-06
1.65378e-08
5.85446e-06
1.88058e-08
5.83311e-06
2.13473e-08
5.80891e-06
2.4196e-08
5.78152e-06
2.73889e-08
5.75056e-06
3.0966e-08
5.71559e-06
3.49708e-08
5.67614e-06
3.94501e-08
5.63168e-06
4.44538e-08
5.58165e-06
5.00349e-08
5.5254e-06
5.62487e-08
5.46225e-06
6.31523e-08
5.39144e-06
7.08037e-08
5.31218e-06
7.92601e-08
5.22361e-06
8.85765e-08
5.1248e-06
9.88033e-08
5.01482e-06
1.09983e-07
4.89267e-06
1.22148e-07
4.75736e-06
1.35316e-07
4.60787e-06
1.49485e-07
4.44324e-06
1.64628e-07
4.26255e-06
1.80689e-07
4.06497e-06
1.97579e-07
3.84981e-06
2.15167e-07
3.61653e-06
2.33279e-07
3.36483e-06
2.51695e-07
3.09469e-06
2.70148e-07
2.80636e-06
2.88326e-07
2.50048e-06
3.05881e-07
2.17804e-06
3.22435e-07
1.84045e-06
3.37594e-07
1.48948e-06
3.50966e-07
1.1273e-06
3.62182e-07
7.5639e-07
3.70913e-07
3.795e-07
3.7689e-07
3.795e-07
5.98424e-06
6.98446e-10
5.98319e-06
2.10376e-09
5.98143e-06
3.54228e-09
5.97893e-06
5.03539e-09
5.97565e-06
6.60599e-09
5.97154e-06
8.27813e-09
5.96654e-06
1.00773e-08
5.96056e-06
1.20306e-08
5.95353e-06
1.41676e-08
5.94532e-06
1.65202e-08
5.93583e-06
1.91231e-08
5.92489e-06
2.20145e-08
5.91236e-06
2.52364e-08
5.89804e-06
2.88348e-08
5.88171e-06
3.28605e-08
5.86315e-06
3.73694e-08
5.84207e-06
4.24228e-08
5.81818e-06
4.8088e-08
5.79113e-06
5.44387e-08
5.76054e-06
6.15551e-08
5.72599e-06
6.95242e-08
5.687e-06
7.84396e-08
5.64305e-06
8.84017e-08
5.59357e-06
9.95167e-08
5.53792e-06
1.11896e-07
5.47542e-06
1.25655e-07
5.40531e-06
1.40911e-07
5.32679e-06
1.5778e-07
5.23899e-06
1.76375e-07
5.141e-06
1.96798e-07
5.03184e-06
2.19139e-07
4.91052e-06
2.43466e-07
4.77602e-06
2.69818e-07
4.62731e-06
2.98195e-07
4.46339e-06
3.28551e-07
4.2833e-06
3.60778e-07
4.08618e-06
3.94701e-07
3.87129e-06
4.30062e-07
3.63805e-06
4.66516e-07
3.38612e-06
5.03623e-07
3.11542e-06
5.40847e-07
2.82619e-06
5.77558e-07
2.51902e-06
6.1305e-07
2.1949e-06
6.46551e-07
1.85524e-06
6.7726e-07
1.50183e-06
7.04375e-07
1.13688e-06
7.27134e-07
7.62929e-07
7.44861e-07
3.82816e-07
7.57003e-07
7.62316e-07
5.9862e-06
1.03496e-09
5.98519e-06
3.11738e-09
5.98348e-06
5.24905e-09
5.98105e-06
7.46168e-09
5.97787e-06
9.78927e-09
5.97388e-06
1.22675e-08
5.96902e-06
1.4934e-08
5.96322e-06
1.78295e-08
5.95639e-06
2.09974e-08
5.94843e-06
2.44851e-08
5.93921e-06
2.83446e-08
5.92859e-06
3.26324e-08
5.91642e-06
3.74109e-08
5.9025e-06
4.27488e-08
5.88664e-06
4.87217e-08
5.8686e-06
5.54129e-08
5.84811e-06
6.29138e-08
5.82487e-06
7.13252e-08
5.79855e-06
8.07572e-08
5.76878e-06
9.13299e-08
5.73513e-06
1.03174e-07
5.69714e-06
1.1643e-07
5.65429e-06
1.31249e-07
5.60601e-06
1.47791e-07
5.55168e-06
1.66226e-07
5.49061e-06
1.86729e-07
5.42204e-06
2.09479e-07
5.34517e-06
2.34655e-07
5.25911e-06
2.62429e-07
5.16295e-06
2.92965e-07
5.05568e-06
3.26403e-07
4.9363e-06
3.62855e-07
4.80372e-06
4.02391e-07
4.65689e-06
4.45024e-07
4.49475e-06
4.90696e-07
4.31627e-06
5.39259e-07
4.1205e-06
5.90463e-07
3.90664e-06
6.43931e-07
3.674e-06
6.99152e-07
3.42216e-06
7.55466e-07
3.15094e-06
8.12065e-07
2.86051e-06
8.6799e-07
2.5514e-06
9.22158e-07
2.22457e-06
9.73379e-07
1.88142e-06
1.02041e-06
1.5238e-06
1.062e-06
1.15399e-06
1.09695e-06
7.7465e-07
1.1242e-06
3.8877e-07
1.14288e-06
1.15109e-06
5.9882e-06
1.35616e-09
5.98723e-06
4.08487e-09
5.9856e-06
6.87821e-09
5.98328e-06
9.77776e-09
5.98025e-06
1.28281e-08
5.97644e-06
1.60761e-08
5.9718e-06
1.95714e-08
5.96626e-06
2.3367e-08
5.95974e-06
2.75204e-08
5.95213e-06
3.20938e-08
5.94332e-06
3.71553e-08
5.93317e-06
4.27797e-08
5.92153e-06
4.90491e-08
5.90823e-06
5.6054e-08
5.89306e-06
6.38942e-08
5.87579e-06
7.26798e-08
5.85617e-06
8.25319e-08
5.83391e-06
9.35839e-08
5.80869e-06
1.05982e-07
5.78013e-06
1.19886e-07
5.74784e-06
1.35469e-07
5.71135e-06
1.52921e-07
5.67015e-06
1.72443e-07
5.62369e-06
1.94251e-07
5.57134e-06
2.18574e-07
5.51242e-06
2.45649e-07
5.44618e-06
2.75722e-07
5.3718e-06
3.09037e-07
5.28839e-06
3.45836e-07
5.19501e-06
3.86348e-07
5.09064e-06
4.30776e-07
4.9742e-06
4.79288e-07
4.8446e-06
5.31995e-07
4.70068e-06
5.88939e-07
4.54131e-06
6.50068e-07
4.36536e-06
7.1521e-07
4.17177e-06
7.84054e-07
3.95958e-06
8.56119e-07
3.728e-06
9.30739e-07
3.47642e-06
1.00704e-06
3.20456e-06
1.08393e-06
2.91244e-06
1.16011e-06
2.60051e-06
1.23409e-06
2.26966e-06
1.30423e-06
1.9213e-06
1.36878e-06
1.55732e-06
1.42598e-06
1.18012e-06
1.47414e-06
7.92563e-07
1.51176e-06
3.97875e-07
1.53757e-06
1.54896e-06
5.9902e-06
1.65722e-09
5.9893e-06
4.99175e-09
5.98777e-06
8.40538e-09
5.9856e-06
1.1949e-08
5.98275e-06
1.56772e-08
5.97918e-06
1.96474e-08
5.97483e-06
2.39203e-08
5.96963e-06
2.8561e-08
5.96351e-06
3.364e-08
5.95638e-06
3.92336e-08
5.9481e-06
4.54256e-08
5.93858e-06
5.23077e-08
5.92764e-06
5.9981e-08
5.91514e-06
6.8557e-08
5.90088e-06
7.81589e-08
5.88463e-06
8.89225e-08
5.86617e-06
1.00998e-07
5.8452e-06
1.1455e-07
5.82142e-06
1.2976e-07
5.79448e-06
1.46828e-07
5.76398e-06
1.65971e-07
5.72948e-06
1.87423e-07
5.69048e-06
2.11441e-07
5.64644e-06
2.38296e-07
5.59673e-06
2.68278e-07
5.54069e-06
3.0169e-07
5.47756e-06
3.38848e-07
5.40653e-06
3.80071e-07
5.32669e-06
4.25676e-07
5.23707e-06
4.75967e-07
5.13662e-06
5.31225e-07
5.02423e-06
5.91685e-07
4.8987e-06
6.57524e-07
4.75881e-06
7.28829e-07
4.6033e-06
8.05576e-07
4.43091e-06
8.87595e-07
4.24043e-06
9.74536e-07
4.03071e-06
1.06584e-06
3.80076e-06
1.16069e-06
3.54978e-06
1.25802e-06
3.27727e-06
1.35644e-06
2.98307e-06
1.45431e-06
2.66748e-06
1.54968e-06
2.33131e-06
1.64039e-06
1.97594e-06
1.72415e-06
1.60333e-06
1.79858e-06
1.21606e-06
1.86142e-06
8.17229e-07
1.91058e-06
4.10422e-07
1.94438e-06
1.95938e-06
5.99401e-06
1.93373e-09
5.99318e-06
5.82467e-09
5.99178e-06
9.80806e-09
5.98978e-06
1.39434e-08
5.98717e-06
1.82946e-08
5.98389e-06
2.29288e-08
5.97989e-06
2.79169e-08
5.97511e-06
3.33355e-08
5.96949e-06
3.92667e-08
5.96292e-06
4.58005e-08
5.95531e-06
5.3035e-08
5.94654e-06
6.1078e-08
5.93647e-06
7.00485e-08
5.92495e-06
8.00778e-08
5.9118e-06
9.13111e-08
5.89681e-06
1.03909e-07
5.87976e-06
1.18049e-07
5.86038e-06
1.33928e-07
5.83838e-06
1.51761e-07
5.81343e-06
1.71785e-07
5.78514e-06
1.9426e-07
5.75309e-06
2.1947e-07
5.71681e-06
2.47722e-07
5.67576e-06
2.79347e-07
5.62934e-06
3.14697e-07
5.57688e-06
3.54146e-07
5.51765e-06
3.98084e-07
5.45081e-06
4.46911e-07
5.37545e-06
5.0103e-07
5.29059e-06
5.60835e-07
5.19512e-06
6.26695e-07
5.08786e-06
6.98938e-07
4.96756e-06
7.77824e-07
4.83288e-06
8.63516e-07
4.68241e-06
9.56046e-07
4.51472e-06
1.05528e-06
4.3284e-06
1.16086e-06
4.12207e-06
1.27217e-06
3.89446e-06
1.3883e-06
3.64451e-06
1.50797e-06
3.37143e-06
1.62952e-06
3.07481e-06
1.75093e-06
2.75473e-06
1.86976e-06
2.41185e-06
1.98327e-06
2.04751e-06
2.0885e-06
1.66374e-06
2.18235e-06
1.26332e-06
2.26183e-06
8.49714e-07
2.32419e-06
4.26959e-07
2.36713e-06
2.38634e-06
5.99775e-06
2.18148e-09
5.997e-06
6.57101e-09
5.99574e-06
1.1065e-08
5.99396e-06
1.57309e-08
5.99161e-06
2.06408e-08
5.98867e-06
2.58706e-08
5.98508e-06
3.1501e-08
5.9808e-06
3.76182e-08
5.97575e-06
4.43158e-08
5.96986e-06
5.16956e-08
5.96302e-06
5.98691e-08
5.95514e-06
6.8959e-08
5.94609e-06
7.91007e-08
5.93572e-06
9.0444e-08
5.92388e-06
1.03155e-07
5.91037e-06
1.17417e-07
5.89499e-06
1.33434e-07
5.87748e-06
1.51432e-07
5.85758e-06
1.71659e-07
5.83498e-06
1.94391e-07
5.80931e-06
2.19928e-07
5.78018e-06
2.48601e-07
5.74713e-06
2.8077e-07
5.70965e-06
3.16825e-07
5.66716e-06
3.57186e-07
5.61901e-06
4.02297e-07
5.56447e-06
4.52631e-07
5.5027e-06
5.08677e-07
5.4328e-06
5.70932e-07
5.35374e-06
6.39896e-07
5.26439e-06
7.16046e-07
5.1635e-06
7.99823e-07
5.04973e-06
8.91598e-07
4.9216e-06
9.91645e-07
4.77755e-06
1.10009e-06
4.61596e-06
1.21687e-06
4.43513e-06
1.34168e-06
4.23341e-06
1.47389e-06
4.0092e-06
1.61251e-06
3.76106e-06
1.75611e-06
3.48783e-06
1.90275e-06
3.18875e-06
2.05001e-06
2.86357e-06
2.19493e-06
2.51274e-06
2.3341e-06
2.1375e-06
2.46374e-06
1.73994e-06
2.57991e-06
1.32311e-06
2.67867e-06
8.90888e-07
2.75641e-06
4.47946e-07
2.81007e-06
2.83429e-06
6.00135e-06
2.39672e-09
6.0007e-06
7.21942e-09
5.9996e-06
1.21572e-08
5.99805e-06
1.72842e-08
5.99601e-06
2.268e-08
5.99345e-06
2.84283e-08
5.99034e-06
3.46179e-08
5.98661e-06
4.13441e-08
5.98222e-06
4.87104e-08
5.97708e-06
5.68291e-08
5.97113e-06
6.58239e-08
5.96426e-06
7.58308e-08
5.95636e-06
8.7e-08
5.9473e-06
9.94981e-08
5.93695e-06
1.1351e-07
5.92512e-06
1.29241e-07
5.91164e-06
1.46919e-07
5.89627e-06
1.66797e-07
5.87878e-06
1.89155e-07
5.85886e-06
2.14304e-07
5.83621e-06
2.42586e-07
5.81043e-06
2.74377e-07
5.78111e-06
3.1009e-07
5.74776e-06
3.50173e-07
5.70983e-06
3.95115e-07
5.66669e-06
4.45437e-07
5.61763e-06
5.01698e-07
5.56182e-06
5.64482e-07
5.49836e-06
6.34397e-07
5.42619e-06
7.12059e-07
5.34416e-06
7.98076e-07
5.25096e-06
8.93028e-07
5.14513e-06
9.97432e-07
5.02506e-06
1.11171e-06
4.88902e-06
1.23613e-06
4.73514e-06
1.37076e-06
4.56143e-06
1.51539e-06
4.36587e-06
1.66945e-06
4.14645e-06
1.83193e-06
3.90126e-06
2.00129e-06
3.62865e-06
2.17537e-06
3.32735e-06
2.35131e-06
2.99669e-06
2.52559e-06
2.63677e-06
2.69402e-06
2.24864e-06
2.85187e-06
1.83444e-06
2.9941e-06
1.39749e-06
3.11562e-06
9.42245e-07
3.21166e-06
4.74163e-07
3.27816e-06
3.30845e-06
6.00659e-06
2.57619e-09
6.00604e-06
7.76012e-09
6.00513e-06
1.30681e-08
6.00384e-06
1.85799e-08
6.00214e-06
2.43815e-08
6e-06
3.0563e-08
5.9974e-06
3.72205e-08
5.99429e-06
4.44569e-08
5.99061e-06
5.23838e-08
5.98632e-06
6.11233e-08
5.98133e-06
7.08091e-08
5.97557e-06
8.15888e-08
5.96895e-06
9.36259e-08
5.96135e-06
1.07102e-07
5.95264e-06
1.22218e-07
5.94268e-06
1.392e-07
5.9313e-06
1.58296e-07
5.91831e-06
1.79786e-07
5.90349e-06
2.03978e-07
5.88658e-06
2.31216e-07
5.86728e-06
2.61882e-07
5.84527e-06
2.96395e-07
5.82013e-06
3.35221e-07
5.79144e-06
3.78867e-07
5.75867e-06
4.27889e-07
5.72122e-06
4.82889e-07
5.6784e-06
5.44515e-07
5.62942e-06
6.13457e-07
5.57338e-06
6.90441e-07
5.50922e-06
7.76218e-07
5.43575e-06
8.71549e-07
5.3516e-06
9.77179e-07
5.25522e-06
1.09381e-06
5.14487e-06
1.22206e-06
5.0186e-06
1.36239e-06
4.87429e-06
1.51508e-06
4.7096e-06
1.68007e-06
4.5221e-06
1.85696e-06
4.30925e-06
2.04478e-06
4.06856e-06
2.24198e-06
3.79771e-06
2.44621e-06
3.49478e-06
2.65424e-06
3.15847e-06
2.8619e-06
2.78838e-06
3.06412e-06
2.38523e-06
3.25502e-06
1.95114e-06
3.4282e-06
1.48971e-06
3.57705e-06
1.0061e-06
3.69527e-06
5.06819e-07
3.77744e-06
3.81527e-06
6.01156e-06
2.7171e-09
6.01113e-06
8.18469e-09
6.01042e-06
1.37834e-08
6.0094e-06
1.95978e-08
6.00806e-06
2.57186e-08
6.00638e-06
3.22415e-08
6.00434e-06
3.9268e-08
6.00189e-06
4.69074e-08
5.99899e-06
5.52783e-08
5.99561e-06
6.45101e-08
5.99167e-06
7.47453e-08
5.98712e-06
8.61412e-08
5.98187e-06
9.88722e-08
5.97584e-06
1.13132e-07
5.96892e-06
1.29138e-07
5.96099e-06
1.4713e-07
5.95191e-06
1.67378e-07
5.94151e-06
1.90183e-07
5.92961e-06
2.15879e-07
5.91598e-06
2.44842e-07
5.90038e-06
2.77488e-07
5.88249e-06
3.14279e-07
5.86198e-06
3.5573e-07
5.83844e-06
4.02406e-07
5.8114e-06
4.5493e-07
5.78031e-06
5.13987e-07
5.7445e-06
5.80317e-07
5.70324e-06
6.54721e-07
5.65563e-06
7.38054e-07
5.60063e-06
8.31218e-07
5.53703e-06
9.35146e-07
5.46343e-06
1.05078e-06
5.37819e-06
1.17905e-06
5.27943e-06
1.32082e-06
5.165e-06
1.47682e-06
5.03249e-06
1.64759e-06
4.8792e-06
1.83336e-06
4.70219e-06
2.03397e-06
4.49833e-06
2.24865e-06
4.26438e-06
2.47593e-06
3.99718e-06
2.71341e-06
3.69389e-06
2.95753e-06
3.35235e-06
3.20344e-06
2.97141e-06
3.44506e-06
2.55127e-06
3.67516e-06
2.09385e-06
3.88562e-06
1.60306e-06
4.06784e-06
1.08488e-06
4.21345e-06
5.47202e-07
4.31511e-06
4.36247e-06
6.01619e-06
2.81723e-09
6.01589e-06
8.48642e-09
6.01538e-06
1.42919e-08
6.01465e-06
2.03217e-08
6.0137e-06
2.66702e-08
6.01251e-06
3.34369e-08
6.01105e-06
4.07277e-08
6.0093e-06
4.86565e-08
6.00723e-06
5.7347e-08
6.00481e-06
6.69346e-08
6.00198e-06
7.75684e-08
5.99871e-06
8.94131e-08
5.99493e-06
1.02652e-07
5.99057e-06
1.17489e-07
5.98556e-06
1.34153e-07
5.97979e-06
1.52897e-07
5.97316e-06
1.74008e-07
5.96554e-06
1.97806e-07
5.95677e-06
2.24648e-07
5.94668e-06
2.54936e-07
5.93505e-06
2.89118e-07
5.92163e-06
3.27695e-07
5.90613e-06
3.71227e-07
5.8882e-06
4.20335e-07
5.86743e-06
4.75708e-07
5.84331e-06
5.38108e-07
5.81525e-06
6.08374e-07
5.78255e-06
6.8742e-07
5.74437e-06
7.76237e-07
5.69969e-06
8.75892e-07
5.64733e-06
9.87511e-07
5.58584e-06
1.11227e-06
5.51355e-06
1.25135e-06
5.42844e-06
1.40592e-06
5.32819e-06
1.57707e-06
5.21008e-06
1.76569e-06
5.07102e-06
1.97242e-06
4.90752e-06
2.19746e-06
4.71576e-06
2.44042e-06
4.4916e-06
2.70009e-06
4.2308e-06
2.97422e-06
3.92925e-06
3.25907e-06
3.58364e-06
3.54905e-06
3.1917e-06
3.837e-06
2.75276e-06
4.1141e-06
2.26832e-06
4.37006e-06
1.74248e-06
4.59367e-06
1.18223e-06
4.77371e-06
5.97241e-07
4.9001e-06
4.95971e-06
6.02224e-06
2.87498e-09
6.02207e-06
8.6605e-09
6.02177e-06
1.45855e-08
6.02136e-06
2.07401e-08
6.02081e-06
2.72209e-08
6.02011e-06
3.413e-08
6.01926e-06
4.15758e-08
6.01824e-06
4.96754e-08
6.01704e-06
5.85559e-08
6.01561e-06
6.83564e-08
6.01395e-06
7.92306e-08
6.01202e-06
9.13486e-08
6.00977e-06
1.049e-07
6.00716e-06
1.20095e-07
6.00414e-06
1.37172e-07
6.00064e-06
1.56396e-07
5.99659e-06
1.78064e-07
5.99188e-06
2.02511e-07
5.98642e-06
2.30114e-07
5.98006e-06
2.61297e-07
5.97264e-06
2.96535e-07
5.96397e-06
3.36362e-07
5.95382e-06
3.81379e-07
5.9419e-06
4.32258e-07
5.92786e-06
4.89749e-07
5.91127e-06
5.54692e-07
5.89163e-06
6.28016e-07
5.8683e-06
7.10752e-07
5.8405e-06
8.04034e-07
5.80729e-06
9.091e-07
5.76752e-06
1.02729e-06
5.71976e-06
1.16002e-06
5.66231e-06
1.3088e-06
5.59309e-06
1.47515e-06
5.50958e-06
1.66057e-06
5.40882e-06
1.86645e-06
5.2873e-06
2.09395e-06
5.14096e-06
2.3438e-06
4.96521e-06
2.61617e-06
4.75489e-06
2.91041e-06
4.50433e-06
3.22478e-06
4.20768e-06
3.55573e-06
3.86008e-06
3.89665e-06
3.45769e-06
4.23939e-06
2.99844e-06
4.57334e-06
2.48294e-06
4.88557e-06
1.91526e-06
5.16135e-06
1.30353e-06
5.38544e-06
6.59791e-07
5.54384e-06
5.61951e-06
6.02779e-06
2.88935e-09
6.02775e-06
8.7039e-09
6.02768e-06
1.46591e-08
6.02757e-06
2.08456e-08
6.02743e-06
2.7361e-08
6.02725e-06
3.43084e-08
6.02703e-06
4.17971e-08
6.02676e-06
4.99456e-08
6.02643e-06
5.88825e-08
6.02604e-06
6.87488e-08
6.02557e-06
7.97003e-08
6.02501e-06
9.19099e-08
6.02434e-06
1.0557e-07
6.02354e-06
1.20898e-07
6.02258e-06
1.38134e-07
6.02142e-06
1.5755e-07
6.02003e-06
1.79454e-07
6.01835e-06
2.0419e-07
6.01632e-06
2.32148e-07
6.01385e-06
2.6377e-07
6.01083e-06
2.99551e-07
6.00714e-06
3.40054e-07
6.00261e-06
3.85912e-07
5.99702e-06
4.37841e-07
5.99013e-06
4.96647e-07
5.98158e-06
5.63238e-07
5.97096e-06
6.38633e-07
5.95774e-06
7.23973e-07
5.94124e-06
8.20533e-07
5.92062e-06
9.29726e-07
5.89479e-06
1.05311e-06
5.86242e-06
1.19239e-06
5.82182e-06
1.3494e-06
5.77088e-06
1.52609e-06
5.70699e-06
1.72446e-06
5.62695e-06
1.94649e-06
5.52687e-06
2.19403e-06
5.40212e-06
2.46855e-06
5.24733e-06
2.77097e-06
5.05631e-06
3.10142e-06
4.82165e-06
3.45944e-06
4.53456e-06
3.84281e-06
4.18869e-06
4.24253e-06
3.77789e-06
4.65019e-06
3.2978e-06
5.05343e-06
2.74734e-06
5.43602e-06
2.13012e-06
5.77857e-06
1.4554e-06
6.06015e-06
7.38384e-07
6.26086e-06
6.35789e-06
6.03275e-06
2.86e-09
6.03284e-06
8.61561e-09
6.03299e-06
1.45108e-08
6.0332e-06
2.06356e-08
6.03347e-06
2.70872e-08
6.03382e-06
3.39676e-08
6.03423e-06
4.1386e-08
6.03471e-06
4.946e-08
6.03528e-06
5.8318e-08
6.03592e-06
6.81007e-08
6.03666e-06
7.89637e-08
6.03749e-06
9.10802e-08
6.03842e-06
1.04643e-07
6.03945e-06
1.1987e-07
6.04057e-06
1.37004e-07
6.0418e-06
1.5632e-07
6.04313e-06
1.78128e-07
6.04454e-06
2.02779e-07
6.04602e-06
2.30671e-07
6.04753e-06
2.62254e-07
6.04905e-06
2.9804e-07
6.05049e-06
3.3861e-07
6.05178e-06
3.84623e-07
6.05279e-06
4.3683e-07
6.05335e-06
4.96081e-07
6.05325e-06
5.63343e-07
6.05217e-06
6.39714e-07
6.0497e-06
7.26437e-07
6.04532e-06
8.24919e-07
6.0383e-06
9.36745e-07
6.02772e-06
1.0637e-06
6.01235e-06
1.20776e-06
5.99061e-06
1.37114e-06
5.96046e-06
1.55624e-06
5.91927e-06
1.76565e-06
5.86368e-06
2.00208e-06
5.78949e-06
2.26822e-06
5.69149e-06
2.56654e-06
5.56359e-06
2.89887e-06
5.39902e-06
3.26599e-06
5.18869e-06
3.66976e-06
4.91729e-06
4.11422e-06
4.57906e-06
4.58075e-06
4.16406e-06
5.06519e-06
3.66423e-06
5.55327e-06
3.07544e-06
6.02481e-06
2.39983e-06
6.45418e-06
1.64766e-06
6.81232e-06
8.38162e-07
7.07036e-06
7.19605e-06
6.03889e-06
2.78725e-09
6.03911e-06
8.39658e-09
6.03948e-06
1.41423e-08
6.04e-06
2.01125e-08
6.04069e-06
2.64021e-08
6.04154e-06
3.3111e-08
6.04258e-06
4.03461e-08
6.04382e-06
4.82228e-08
6.04527e-06
5.68669e-08
6.04696e-06
6.64166e-08
6.0489e-06
7.70252e-08
6.05111e-06
8.88632e-08
6.05363e-06
1.02121e-07
6.05649e-06
1.17014e-07
6.05971e-06
1.33783e-07
6.06333e-06
1.527e-07
6.06738e-06
1.74076e-07
6.0719e-06
1.98261e-07
6.07692e-06
2.25654e-07
6.08246e-06
2.56709e-07
6.08856e-06
2.91943e-07
6.09522e-06
3.31947e-07
6.10245e-06
3.77397e-07
6.11022e-06
4.29064e-07
6.11846e-06
4.87833e-07
6.12709e-06
5.54715e-07
6.13594e-06
6.3087e-07
6.14475e-06
7.17628e-07
6.15316e-06
8.16511e-07
6.16064e-06
9.29262e-07
6.16646e-06
1.05787e-06
6.16961e-06
1.20461e-06
6.1687e-06
1.37205e-06
6.16186e-06
1.56309e-06
6.14656e-06
1.78095e-06
6.11946e-06
2.02918e-06
6.0761e-06
2.31158e-06
6.0107e-06
2.63194e-06
5.91615e-06
2.99342e-06
5.78668e-06
3.39546e-06
5.61536e-06
1.96768e-06
1.8734e-06
5.36508e-06
2.15481e-06
2.20968e-06
5.04398e-06
2.42041e-06
2.48145e-06
4.63243e-06
2.70598e-06
2.77076e-06
4.11668e-06
3.00157e-06
3.06745e-06
3.48739e-06
3.2952e-06
3.35891e-06
2.74343e-06
3.57048e-06
3.62767e-06
1.8952e-06
3.80732e-06
3.85323e-06
9.665e-07
3.98472e-06
4.01434e-06
4.08277e-06
4.07978e-06
6.04409e-06
2.6721e-09
6.04444e-06
8.04979e-09
6.04502e-06
1.35586e-08
6.04585e-06
1.92832e-08
6.04694e-06
2.53149e-08
6.0483e-06
3.17499e-08
6.04995e-06
3.86911e-08
6.05192e-06
4.62498e-08
6.05424e-06
5.45474e-08
6.05694e-06
6.37174e-08
6.06006e-06
7.39081e-08
6.06364e-06
8.52846e-08
6.06773e-06
9.80322e-08
6.07238e-06
1.12359e-07
6.07766e-06
1.28501e-07
6.08364e-06
1.46724e-07
6.09039e-06
1.67332e-07
6.09798e-06
1.90668e-07
6.10651e-06
2.17126e-07
6.11606e-06
2.47156e-07
6.12673e-06
2.81271e-07
6.13862e-06
3.20063e-07
6.1518e-06
3.64209e-07
6.16638e-06
4.1449e-07
6.1824e-06
4.71806e-07
6.19992e-06
5.37195e-07
6.21893e-06
6.1186e-07
6.23937e-06
6.97192e-07
6.26107e-06
7.94806e-07
6.28376e-06
9.06573e-07
6.30697e-06
1.03467e-06
6.32996e-06
1.18161e-06
6.35168e-06
1.35033e-06
6.37056e-06
1.54421e-06
6.38438e-06
1.76712e-06
6.39003e-06
2.02354e-06
6.38309e-06
2.31852e-06
6.3571e-06
2.65793e-06
6.30145e-06
3.04907e-06
3.16277e-06
3.50428e-06
3.02986e-06
-1.88816e-06
1.90923e-06
3.1417e-06
-2.96264e-06
2.94818e-06
2.16928e-06
-2.86119e-06
2.82544e-06
2.45616e-06
-2.71299e-06
2.65398e-06
2.76499e-06
-2.51342e-06
2.42545e-06
3.08953e-06
-2.25332e-06
2.13073e-06
3.41779e-06
-1.9253e-06
1.76358e-06
3.7322e-06
-1.52619e-06
1.32421e-06
4.00931e-06
-1.06084e-06
8.22397e-07
4.22316e-06
-5.43529e-07
2.76354e-07
4.34994e-06
6.04919e-06
2.51618e-09
6.04966e-06
7.58018e-09
6.05045e-06
1.27679e-08
6.05157e-06
1.81595e-08
6.05304e-06
2.3841e-08
6.05489e-06
2.99034e-08
6.05714e-06
3.64442e-08
6.05982e-06
4.35685e-08
6.06297e-06
5.13914e-08
6.06665e-06
6.00397e-08
6.07091e-06
6.9654e-08
6.0758e-06
8.03915e-08
6.0814e-06
9.24287e-08
6.0878e-06
1.05964e-07
6.09507e-06
1.21224e-07
6.10334e-06
1.38462e-07
6.1127e-06
1.5797e-07
6.12328e-06
1.80081e-07
6.13524e-06
2.05174e-07
6.14871e-06
2.33686e-07
6.16386e-06
2.66117e-07
6.18088e-06
3.03046e-07
6.19995e-06
3.4514e-07
6.22127e-06
3.93172e-07
6.24503e-06
4.48038e-07
6.27145e-06
5.10782e-07
6.30068e-06
5.82623e-07
6.33289e-06
6.64982e-07
6.36817e-06
7.59531e-07
6.40651e-06
8.6823e-07
6.44779e-06
9.93391e-07
6.49166e-06
1.13774e-06
6.53749e-06
1.3045e-06
6.58422e-06
1.49748e-06
6.63016e-06
1.72118e-06
6.67279e-06
1.98091e-06
6.70844e-06
2.28287e-06
6.73206e-06
2.6343e-06
6.73782e-06
3.04331e-06
3.38788e-06
3.51754e-06
3.33668e-06
-1.96333e-06
1.94632e-06
3.4049e-06
-3.24783e-06
3.21266e-06
-2.20454e-06
2.2397e-06
-3.16718e-06
3.11264e-06
-2.51269e-06
2.56723e-06
-3.04309e-06
2.96083e-06
-2.8477e-06
2.92996e-06
-2.85974e-06
2.74225e-06
-3.20445e-06
3.32194e-06
-2.60233e-06
2.44262e-06
-3.57068e-06
3.7304e-06
-2.25687e-06
2.04834e-06
-3.92744e-06
4.13597e-06
-1.81316e-06
1.55555e-06
-4.2467e-06
4.5043e-06
-1.27407e-06
9.7416e-07
-4.49659e-06
4.79651e-06
-6.57531e-07
3.30723e-07
-4.64693e-06
4.97374e-06
6.05411e-06
2.32178e-09
6.05469e-06
6.99461e-09
6.05568e-06
1.17819e-08
6.05708e-06
1.67577e-08
6.05892e-06
2.20018e-08
6.06122e-06
2.75984e-08
6.06403e-06
3.36377e-08
6.06738e-06
4.02174e-08
6.07133e-06
4.74441e-08
6.07593e-06
5.54357e-08
6.08126e-06
6.4323e-08
6.0874e-06
7.42523e-08
6.09444e-06
8.53884e-08
6.10249e-06
9.79169e-08
6.11166e-06
1.12049e-07
6.1221e-06
1.28023e-07
6.13396e-06
1.46114e-07
6.14741e-06
1.66635e-07
6.16264e-06
1.89944e-07
6.17986e-06
2.16457e-07
6.19933e-06
2.4665e-07
6.2213e-06
2.81076e-07
6.24606e-06
3.20377e-07
6.27394e-06
3.653e-07
6.30526e-06
4.16716e-07
6.34039e-06
4.75649e-07
6.37971e-06
5.43299e-07
6.42361e-06
6.21085e-07
6.47246e-06
7.10687e-07
6.52658e-06
8.14103e-07
6.58626e-06
9.33715e-07
6.65162e-06
1.07238e-06
6.72259e-06
1.23353e-06
6.79877e-06
1.42131e-06
6.87924e-06
1.64071e-06
6.96238e-06
1.89777e-06
7.04546e-06
2.19979e-06
7.12428e-06
2.55548e-06
7.19257e-06
2.97503e-06
3.64926e-06
3.46988e-06
3.59097e-06
-1.97975e-06
1.93792e-06
3.69109e-06
-3.5438e-06
3.52696e-06
-2.26528e-06
2.28212e-06
-3.50151e-06
3.46488e-06
-2.61413e-06
2.65076e-06
-3.41443e-06
3.34764e-06
-3.00597e-06
3.07276e-06
-3.26143e-06
3.15287e-06
-3.4363e-06
3.54486e-06
-3.01939e-06
2.86293e-06
-3.89103e-06
4.04748e-06
-2.66944e-06
2.44261e-06
-4.35414e-06
4.58097e-06
-2.18107e-06
1.8847e-06
-4.78078e-06
5.07715e-06
-1.55468e-06
1.19438e-06
-5.12458e-06
5.48489e-06
-8.09032e-07
4.06359e-07
-5.33498e-06
5.73765e-06
6.05859e-06
2.09179e-09
6.05928e-06
6.30181e-09
6.06045e-06
1.06152e-08
6.06211e-06
1.50988e-08
6.06428e-06
1.98246e-08
6.06701e-06
2.48689e-08
6.07034e-06
3.03132e-08
6.07431e-06
3.62458e-08
6.07899e-06
4.27634e-08
6.08445e-06
4.99728e-08
6.09078e-06
5.79928e-08
6.09808e-06
6.69562e-08
6.10645e-06
7.7013e-08
6.11604e-06
8.83323e-08
6.12698e-06
1.01107e-07
6.13945e-06
1.15555e-07
6.15364e-06
1.31928e-07
6.16976e-06
1.50514e-07
6.18806e-06
1.71644e-07
6.20881e-06
1.957e-07
6.23234e-06
2.23125e-07
6.25898e-06
2.54433e-07
6.28914e-06
2.90225e-07
6.32323e-06
3.31202e-07
6.36176e-06
3.78188e-07
6.40525e-06
4.32156e-07
6.4543e-06
4.94257e-07
6.50952e-06
5.65859e-07
6.57161e-06
6.486e-07
6.64127e-06
7.44445e-07
6.71921e-06
8.55771e-07
6.80613e-06
9.85461e-07
6.90263e-06
1.13703e-06
7.00913e-06
1.31481e-06
7.12572e-06
1.52411e-06
7.25196e-06
1.77154e-06
7.38649e-06
2.06526e-06
7.52655e-06
2.41541e-06
7.66704e-06
2.83454e-06
3.93057e-06
3.33808e-06
3.86827e-06
-1.94982e-06
1.88075e-06
3.99964e-06
-3.86744e-06
3.87678e-06
-2.28493e-06
2.27559e-06
-3.87862e-06
3.86997e-06
-2.67463e-06
2.68328e-06
-3.84788e-06
3.80893e-06
-3.12739e-06
3.16633e-06
-3.74905e-06
3.66308e-06
-3.64517e-06
3.73114e-06
-1.77545e-06
-2.17879e-06
1.7359e-06
2.21833e-06
-1.59097e-06
-2.50293e-06
1.52565e-06
2.56825e-06
-1.30118e-06
-2.81443e-06
1.20877e-06
2.90685e-06
-9.00762e-07
-3.07402e-06
7.82513e-07
3.19227e-06
-4.03974e-07
3.36794e-06
-3.23278e-06
2.68816e-07
6.06257e-06
1.82967e-09
6.06335e-06
5.51217e-09
6.06468e-06
9.28525e-09
6.06658e-06
1.32075e-08
6.06906e-06
1.73421e-08
6.07217e-06
2.1756e-08
6.07596e-06
2.65205e-08
6.0805e-06
3.17134e-08
6.08584e-06
3.74195e-08
6.09208e-06
4.37329e-08
6.09931e-06
5.0758e-08
6.10766e-06
5.8612e-08
6.11724e-06
6.74272e-08
6.12822e-06
7.73529e-08
6.14077e-06
8.85596e-08
6.15508e-06
1.01241e-07
6.17139e-06
1.15621e-07
6.18995e-06
1.31955e-07
6.21106e-06
1.50538e-07
6.23504e-06
1.71712e-07
6.26229e-06
1.95876e-07
6.29324e-06
2.23491e-07
6.32836e-06
2.55101e-07
6.36822e-06
2.91342e-07
6.41344e-06
3.32967e-07
6.46473e-06
3.80867e-07
6.52288e-06
4.36105e-07
6.58879e-06
4.99954e-07
6.66344e-06
5.73947e-07
6.74794e-06
6.59947e-07
6.84349e-06
7.60221e-07
6.95139e-06
8.77559e-07
7.07301e-06
1.01541e-06
7.20974e-06
1.17808e-06
7.36288e-06
1.37097e-06
7.5335e-06
1.60092e-06
7.72214e-06
1.87661e-06
7.92834e-06
2.20922e-06
8.14975e-06
2.61313e-06
4.22239e-06
3.10702e-06
4.15842e-06
-1.86562e-06
1.76593e-06
4.32208e-06
-4.21522e-06
4.25802e-06
-2.24854e-06
2.20574e-06
-4.29608e-06
4.32628e-06
-2.67388e-06
2.64368e-06
-4.34542e-06
4.34964e-06
-3.18568e-06
3.18146e-06
-4.33423e-06
4.29349e-06
-3.79518e-06
3.83592e-06
-2.12692e-06
-2.33334e-06
2.09946e-06
2.36081e-06
-1.96503e-06
-2.75642e-06
1.90378e-06
2.81768e-06
-1.66191e-06
-3.19526e-06
1.56004e-06
3.29712e-06
-1.18681e-06
-3.58383e-06
1.04031e-06
3.73032e-06
-5.44832e-07
4.01077e-06
-3.83149e-06
3.65547e-07
6.06616e-06
1.53938e-09
6.06703e-06
4.63766e-09
6.06851e-06
7.81228e-09
6.0706e-06
1.11126e-08
6.07335e-06
1.4592e-08
6.0768e-06
1.83067e-08
6.081e-06
2.23171e-08
6.08603e-06
2.66888e-08
6.09196e-06
3.14934e-08
6.09888e-06
3.68104e-08
6.10691e-06
4.27283e-08
6.11617e-06
4.93463e-08
6.12682e-06
5.67763e-08
6.13903e-06
6.51454e-08
6.15299e-06
7.45981e-08
6.16893e-06
8.52998e-08
6.18712e-06
9.74404e-08
6.20783e-06
1.11239e-07
6.23142e-06
1.26947e-07
6.25828e-06
1.44859e-07
6.28883e-06
1.65317e-07
6.32361e-06
1.88719e-07
6.36317e-06
2.15536e-07
6.40819e-06
2.46321e-07
6.45943e-06
2.81729e-07
6.51776e-06
3.22542e-07
6.58417e-06
3.69696e-07
6.6598e-06
4.24321e-07
6.74596e-06
4.87784e-07
6.84415e-06
5.6176e-07
6.95606e-06
6.48308e-07
7.08363e-06
7.49986e-07
7.22905e-06
8.69996e-07
7.39475e-06
1.01238e-06
7.58342e-06
1.18231e-06
7.79792e-06
1.38642e-06
8.04113e-06
1.63339e-06
8.3157e-06
1.93466e-06
8.62338e-06
2.30545e-06
4.51344e-06
2.76635e-06
4.4506e-06
-1.71799e-06
1.58554e-06
4.6459e-06
-4.57662e-06
4.66015e-06
-2.1415e-06
2.05797e-06
-4.7437e-06
4.82449e-06
-2.58961e-06
2.50881e-06
-4.89953e-06
4.96484e-06
-3.14916e-06
3.08384e-06
-5.01514e-06
5.04333e-06
-3.84631e-06
3.81812e-06
-2.56574e-06
-2.43423e-06
2.55788e-06
2.4421e-06
-2.47275e-06
-2.98818e-06
2.4236e-06
3.03733e-06
-2.19464e-06
-3.61611e-06
2.08612e-06
3.72463e-06
-1.64553e-06
-4.22775e-06
1.45807e-06
4.41521e-06
-7.82723e-07
4.90422e-06
-4.64919e-06
5.27688e-07
6.06913e-06
1.22536e-09
6.07008e-06
3.69164e-09
6.07167e-06
6.21877e-09
6.07394e-06
8.84612e-09
6.07691e-06
1.16162e-08
6.08065e-06
1.45739e-08
6.0852e-06
1.77674e-08
6.09064e-06
2.1249e-08
6.09705e-06
2.5076e-08
6.10455e-06
2.93119e-08
6.11325e-06
3.40274e-08
6.1233e-06
3.93019e-08
6.13485e-06
4.52251e-08
6.14809e-06
5.18988e-08
6.16325e-06
5.94391e-08
6.18058e-06
6.79787e-08
6.20035e-06
7.76705e-08
6.22289e-06
8.86906e-08
6.2486e-06
1.01243e-07
6.27789e-06
1.15565e-07
6.31127e-06
1.31934e-07
6.34932e-06
1.50674e-07
6.39269e-06
1.72167e-07
6.44214e-06
1.96866e-07
6.49856e-06
2.25308e-07
6.56297e-06
2.58137e-07
6.63654e-06
2.96126e-07
6.72065e-06
3.40212e-07
6.81689e-06
3.91541e-07
6.92713e-06
4.51518e-07
7.05355e-06
5.21889e-07
7.1987e-06
6.04837e-07
7.36557e-06
7.03123e-07
7.55768e-06
8.20275e-07
7.77913e-06
9.60854e-07
8.03472e-06
1.13083e-06
8.32999e-06
1.33813e-06
8.67122e-06
1.59342e-06
9.06532e-06
1.91135e-06
4.7889e-06
2.31228e-06
4.73049e-06
-1.50027e-06
1.33559e-06
4.95358e-06
-4.93454e-06
5.06451e-06
-1.94989e-06
1.81991e-06
-5.20148e-06
5.34376e-06
-2.39841e-06
2.25613e-06
-5.48948e-06
5.63583e-06
-2.98043e-06
2.83407e-06
-5.77853e-06
5.91118e-06
-3.74235e-06
3.6097e-06
-3.09949e-06
-2.43848e-06
3.12673e-06
2.41124e-06
-3.14925e-06
-3.142e-06
3.13508e-06
3.15617e-06
-2.99104e-06
-4.03762e-06
2.89835e-06
4.13031e-06
-2.43116e-06
-5.04929e-06
2.19661e-06
5.28384e-06
-1.23433e-06
6.25026e-06
-5.85176e-06
8.35831e-07
6.07144e-06
8.92425e-10
6.07244e-06
2.68862e-09
6.07413e-06
4.52918e-09
6.07653e-06
6.44281e-09
6.07969e-06
8.46049e-09
6.08365e-06
1.0615e-08
6.08847e-06
1.29415e-08
6.09424e-06
1.54781e-08
6.10105e-06
1.82667e-08
6.10901e-06
2.13537e-08
6.11825e-06
2.47906e-08
6.12891e-06
2.86357e-08
6.14118e-06
3.29545e-08
6.15526e-06
3.78216e-08
6.17138e-06
4.33219e-08
6.1898e-06
4.95531e-08
6.21085e-06
5.66272e-08
6.23486e-06
6.46737e-08
6.26226e-06
7.38429e-08
6.29352e-06
8.43096e-08
6.32918e-06
9.62783e-08
6.36986e-06
1.09989e-07
6.4163e-06
1.25725e-07
6.46935e-06
1.43823e-07
6.52997e-06
1.64682e-07
6.59932e-06
1.88784e-07
6.67874e-06
2.16709e-07
6.76979e-06
2.49161e-07
6.87433e-06
2.87006e-07
6.99453e-06
3.31312e-07
7.13301e-06
3.83412e-07
7.29286e-06
4.44983e-07
7.47782e-06
5.18164e-07
7.69239e-06
6.05709e-07
7.94203e-06
7.11217e-07
8.2334e-06
8.39455e-07
8.57469e-06
9.96835e-07
8.97597e-06
1.19215e-06
9.44966e-06
1.43766e-06
5.03018e-06
1.75094e-06
4.98082e-06
-1.21091e-06
1.018e-06
5.22308e-06
-5.2661e-06
5.44459e-06
-1.66392e-06
1.48543e-06
-5.63881e-06
5.84906e-06
-2.08017e-06
1.86992e-06
-6.07581e-06
6.31905e-06
-2.64067e-06
2.39742e-06
-6.57787e-06
6.84982e-06
-3.41117e-06
3.13922e-06
-3.70582e-06
-2.27517e-06
3.78778e-06
2.1932e-06
-4.00442e-06
-3.10087e-06
4.06537e-06
3.03992e-06
-4.17152e-06
-4.31734e-06
4.32485e-06
2.10323e-06
2.06078e-06