/*--------------------------------*- C++ -*----------------------------------*\
| =========                 |                                                 |
| \\      /  F ield         | foam-extend: Open Source CFD                    |
|  \\    /   O peration     | Version:     4.0                                |
|   \\  /    A nd           | Web:         http://www.foam-extend.org         |
|    \\/     M anipulation  |                                                 |
\*---------------------------------------------------------------------------*/
FoamFile
{
    version     2.0;
    format      ascii;
    class       volVectorField;
    location    "0.00200001";
    object      U;
}
// * * * * * * * * * * * * * * * * * * * * * * * * * * * * * * * * * * * * * //

dimensions      [0 1 -1 0 0 0 0];

internalField   nonuniform List<vector> 
28770
(
(203.477 0.00586148 0)
(203.453 0.0176551 0)
(203.405 0.029727 0)
(203.331 0.0422572 0)
(203.232 0.055437 0)
(203.104 0.0694684 0)
(202.947 0.084565 0)
(202.757 0.100955 0)
(202.533 0.118884 0)
(202.27 0.138621 0)
(201.964 0.160457 0)
(201.612 0.184711 0)
(201.207 0.211735 0)
(200.744 0.241914 0)
(200.216 0.275672 0)
(199.614 0.313478 0)
(198.931 0.355842 0)
(198.155 0.403329 0)
(197.277 0.456552 0)
(196.284 0.516179 0)
(195.162 0.582936 0)
(193.895 0.657602 0)
(192.467 0.74101 0)
(190.859 0.834042 0)
(189.05 0.93762 0)
(187.018 1.0527 0)
(184.737 1.18024 0)
(182.183 1.3212 0)
(179.327 1.4765 0)
(176.137 1.64697 0)
(172.584 1.83333 0)
(168.633 2.03611 0)
(164.25 2.25561 0)
(159.403 2.49178 0)
(154.057 2.7442 0)
(148.179 3.01193 0)
(141.741 3.29347 0)
(134.715 3.58665 0)
(127.083 3.88855 0)
(118.828 4.19553 0)
(109.946 4.50311 0)
(100.44 4.80613 0)
(90.3264 5.09875 0)
(79.632 5.37468 0)
(68.3978 5.62736 0)
(56.678 5.85027 0)
(44.5397 6.03722 0)
(32.0619 6.18275 0)
(19.3346 6.28239 0)
(6.46028 6.3259 0)
(203.738 0.0175025 0)
(203.715 0.0527178 0)
(203.667 0.0887659 0)
(203.595 0.126181 0)
(203.496 0.165538 0)
(203.37 0.207439 0)
(203.215 0.252521 0)
(203.028 0.301467 0)
(202.807 0.355014 0)
(202.547 0.41396 0)
(202.246 0.479178 0)
(201.898 0.551623 0)
(201.499 0.632345 0)
(201.042 0.722498 0)
(200.52 0.823353 0)
(199.926 0.936306 0)
(199.251 1.06289 0)
(198.486 1.2048 0)
(197.619 1.36387 0)
(196.638 1.54211 0)
(195.529 1.74168 0)
(194.277 1.96494 0)
(192.865 2.21438 0)
(191.275 2.49266 0)
(189.485 2.80257 0)
(187.474 3.14697 0)
(185.217 3.52878 0)
(182.687 3.95089 0)
(179.856 4.4161 0)
(176.693 4.92696 0)
(173.167 5.48567 0)
(169.244 6.0939 0)
(164.889 6.75259 0)
(160.068 7.46172 0)
(154.746 8.22006 0)
(148.89 9.02491 0)
(142.469 9.87183 0)
(135.456 10.7544 0)
(127.828 11.6638 0)
(119.569 12.5892 0)
(110.672 13.5172 0)
(101.141 14.4321 0)
(90.9888 15.3162 0)
(80.2428 16.1505 0)
(68.9436 16.915 0)
(57.1457 17.5898 0)
(44.9174 18.1561 0)
(32.3395 18.597 0)
(19.5044 18.8991 0)
(6.5174 19.0311 0)
(203.784 0.0288904 0)
(203.761 0.0870197 0)
(203.715 0.146523 0)
(203.645 0.208286 0)
(203.549 0.273257 0)
(203.427 0.342429 0)
(203.277 0.416858 0)
(203.095 0.497672 0)
(202.88 0.586088 0)
(202.628 0.683428 0)
(202.336 0.791135 0)
(201.998 0.91079 0)
(201.61 1.04413 0)
(201.166 1.19307 0)
(200.659 1.35972 0)
(200.082 1.54638 0)
(199.427 1.75562 0)
(198.682 1.99024 0)
(197.839 2.25328 0)
(196.884 2.5481 0)
(195.805 2.87832 0)
(194.585 3.24784 0)
(193.209 3.66086 0)
(191.658 4.12183 0)
(189.912 4.63541 0)
(187.948 5.20645 0)
(185.741 5.83988 0)
(183.266 6.54063 0)
(180.492 7.31345 0)
(177.391 8.16276 0)
(173.928 9.09242 0)
(170.071 10.1054 0)
(165.782 11.2035 0)
(161.027 12.387 0)
(155.768 13.6541 0)
(149.97 15.0007 0)
(143.6 16.4194 0)
(136.628 17.8999 0)
(129.028 19.4278 0)
(120.782 20.9848 0)
(111.879 22.5485 0)
(102.319 24.0925 0)
(92.1148 25.5867 0)
(81.2907 26.9988 0)
(69.8872 28.2944 0)
(57.9596 29.4394 0)
(45.5781 30.4012 0)
(32.8269 31.1509 0)
(19.8032 31.6646 0)
(6.6181 31.8899 0)
(203.852 0.0398524 0)
(203.83 0.120038 0)
(203.786 0.202123 0)
(203.719 0.287326 0)
(203.628 0.37696 0)
(203.511 0.472397 0)
(203.367 0.575095 0)
(203.194 0.686613 0)
(202.989 0.808635 0)
(202.748 0.94299 0)
(202.469 1.09167 0)
(202.146 1.25688 0)
(201.775 1.44101 0)
(201.351 1.64673 0)
(200.866 1.87695 0)
(200.314 2.13489 0)
(199.686 2.42412 0)
(198.973 2.74851 0)
(198.165 3.11234 0)
(197.25 3.52029 0)
(196.214 3.97741 0)
(195.043 4.48921 0)
(193.721 5.06156 0)
(192.229 5.70075 0)
(190.547 6.41339 0)
(188.654 7.20636 0)
(186.523 8.08673 0)
(184.13 9.06158 0)
(181.444 10.1378 0)
(178.435 11.3219 0)
(175.069 12.6197 0)
(171.311 14.0358 0)
(167.123 15.5732 0)
(162.468 17.2328 0)
(157.306 19.0128 0)
(151.598 20.9079 0)
(145.308 22.9087 0)
(138.402 25.0009 0)
(130.848 27.1649 0)
(122.625 29.3751 0)
(113.715 31.5999 0)
(104.116 33.8016 0)
(93.8347 35.9374 0)
(82.8941 37.96 0)
(71.3334 39.8196 0)
(59.2087 41.4661 0)
(46.5933 42.8514 0)
(33.5766 43.9324 0)
(20.2631 44.674 0)
(6.77309 45.0006 0)
(203.941 0.0502236 0)
(203.92 0.151278 0)
(203.879 0.254729 0)
(203.816 0.362115 0)
(203.73 0.475093 0)
(203.621 0.595397 0)
(203.486 0.724867 0)
(203.324 0.865475 0)
(203.131 1.01935 0)
(202.906 1.1888 0)
(202.643 1.37636 0)
(202.34 1.5848 0)
(201.992 1.81718 0)
(201.593 2.07687 0)
(201.137 2.36757 0)
(200.618 2.69339 0)
(200.027 3.05885 0)
(199.356 3.46892 0)
(198.594 3.92907 0)
(197.731 4.44527 0)
(196.753 5.02404 0)
(195.647 5.67245 0)
(194.396 6.39811 0)
(192.982 7.20917 0)
(191.386 8.11425 0)
(189.586 9.12239 0)
(187.558 10.2429 0)
(185.274 11.4852 0)
(182.706 12.8586 0)
(179.821 14.372 0)
(176.586 16.0334 0)
(172.963 17.8496 0)
(168.913 19.8254 0)
(164.395 21.9629 0)
(159.366 24.2608 0)
(153.785 26.7135 0)
(147.608 29.3099 0)
(140.795 32.0327 0)
(133.311 34.8572 0)
(125.125 37.7509 0)
(116.213 40.6728 0)
(106.567 43.5735 0)
(96.1865 46.396 0)
(85.0921 49.0769 0)
(73.3203 51.5486 0)
(60.9282 53.7425 0)
(47.9931 55.5925 0)
(34.6117 57.0388 0)
(20.8987 58.0322 0)
(6.98739 58.4722 0)
(204.049 0.0598499 0)
(204.03 0.180275 0)
(203.992 0.30356 0)
(203.935 0.431544 0)
(203.856 0.566202 0)
(203.756 0.709609 0)
(203.632 0.863961 0)
(203.482 1.03162 0)
(203.305 1.21512 0)
(203.098 1.41725 0)
(202.857 1.64102 0)
(202.578 1.88978 0)
(202.257 2.16718 0)
(201.89 2.47727 0)
(201.47 2.82452 0)
(200.991 3.21389 0)
(200.446 3.65081 0)
(199.826 4.14133 0)
(199.121 4.69205 0)
(198.322 5.31026 0)
(197.416 6.0039 0)
(196.389 6.78162 0)
(195.226 7.65278 0)
(193.91 8.62744 0)
(192.421 9.71631 0)
(190.738 10.9307 0)
(188.837 12.2823 0)
(186.691 13.7831 0)
(184.271 15.4452 0)
(181.544 17.2801 0)
(178.474 19.2988 0)
(175.024 21.5105 0)
(171.151 23.9226 0)
(166.811 26.5392 0)
(161.957 29.3605 0)
(156.542 32.3813 0)
(150.517 35.59 0)
(143.833 38.9669 0)
(136.447 42.4832 0)
(128.319 46.0997 0)
(119.417 49.7661 0)
(109.72 53.4205 0)
(99.2233 56.9905 0)
(87.9393 60.3943 0)
(75.9018 63.5439 0)
(63.1683 66.3487 0)
(49.8208 68.7206 0)
(35.9655 70.5793 0)
(21.731 71.8582 0)
(7.2682 72.4285 0)
(204.176 0.0685876 0)
(204.159 0.206596 0)
(204.125 0.347888 0)
(204.073 0.494576 0)
(204.003 0.64893 0)
(203.913 0.81333 0)
(203.802 0.990307 0)
(203.668 1.18257 0)
(203.509 1.39305 0)
(203.323 1.62495 0)
(203.106 1.88175 0)
(202.855 2.1673 0)
(202.567 2.48584 0)
(202.237 2.84205 0)
(201.859 3.24113 0)
(201.427 3.6888 0)
(200.935 4.19143 0)
(200.376 4.75604 0)
(199.739 5.39037 0)
(199.016 6.10297 0)
(198.194 6.90319 0)
(197.261 7.80125 0)
(196.203 8.80828 0)
(195.003 9.93628 0)
(193.641 11.1981 0)
(192.099 12.6075 0)
(190.351 14.1787 0)
(188.371 15.9266 0)
(186.13 17.8662 0)
(183.595 20.0123 0)
(180.728 22.3792 0)
(177.49 24.9795 0)
(173.837 27.8238 0)
(169.719 30.9195 0)
(165.087 34.2691 0)
(159.884 37.8693 0)
(154.056 41.7091 0)
(147.545 45.7679 0)
(140.295 50.0136 0)
(132.256 54.4012 0)
(123.382 58.8713 0)
(113.641 63.3489 0)
(103.015 67.7447 0)
(91.509 71.956 0)
(79.1507 75.8704 0)
(65.9971 79.3707 0)
(52.1356 82.3414 0)
(37.684 84.6763 0)
(22.7891 86.2864 0)
(7.62547 87.0102 0)
(204.319 0.0763043 0)
(204.304 0.229843 0)
(204.274 0.387041 0)
(204.229 0.550256 0)
(204.168 0.722019 0)
(204.09 0.904989 0)
(203.993 1.10199 0)
(203.877 1.31605 0)
(203.739 1.55045 0)
(203.576 1.80876 0)
(203.388 2.0949 0)
(203.169 2.41318 0)
(202.918 2.76837 0)
(202.629 3.16573 0)
(202.299 3.61111 0)
(201.921 4.111 0)
(201.491 4.6726 0)
(200.999 5.30386 0)
(200.44 6.01363 0)
(199.803 6.81164 0)
(199.079 7.70862 0)
(198.254 8.71637 0)
(197.316 9.84774 0)
(196.25 11.1167 0)
(195.036 12.5384 0)
(193.656 14.129 0)
(192.087 15.9056 0)
(190.302 17.8861 0)
(188.271 20.089 0)
(185.963 22.5327 0)
(183.338 25.2355 0)
(180.355 28.2143 0)
(176.967 31.484 0)
(173.122 35.0561 0)
(168.762 38.9372 0)
(163.827 43.1274 0)
(158.251 47.618 0)
(151.965 52.3892 0)
(144.901 57.4075 0)
(136.992 62.6233 0)
(128.178 67.9687 0)
(118.409 73.3554 0)
(107.651 78.6754 0)
(95.8957 83.8018 0)
(83.162 88.5933 0)
(69.5045 92.8998 0)
(55.0158 96.5711 0)
(39.8284 99.4673 0)
(24.112 101.47 0)
(8.07261 102.379 0)
(204.476 0.0828829 0)
(204.463 0.249661 0)
(204.439 0.420425 0)
(204.401 0.597739 0)
(204.35 0.784364 0)
(204.285 0.983197 0)
(204.204 1.19732 0)
(204.107 1.43003 0)
(203.991 1.68492 0)
(203.856 1.96589 0)
(203.698 2.27724 0)
(203.515 2.62368 0)
(203.304 3.01046 0)
(203.062 3.44336 0)
(202.784 3.92884 0)
(202.467 4.47405 0)
(202.103 5.08696 0)
(201.689 5.77643 0)
(201.215 6.55227 0)
(200.675 7.4254 0)
(200.059 8.40786 0)
(199.356 9.51295 0)
(198.553 10.7553 0)
(197.637 12.1508 0)
(196.591 13.7168 0)
(195.396 15.4722 0)
(194.029 17.437 0)
(192.467 19.6325 0)
(190.68 22.0808 0)
(188.634 24.8048 0)
(186.291 27.8273 0)
(183.608 31.1703 0)
(180.536 34.8543 0)
(177.017 38.8963 0)
(172.99 43.3089 0)
(168.384 48.0975 0)
(163.125 53.2579 0)
(157.13 58.7736 0)
(150.316 64.6121 0)
(142.597 70.7213 0)
(133.89 77.0263 0)
(124.124 83.4259 0)
(113.244 89.7916 0)
(101.22 95.9688 0)
(88.059 101.781 0)
(73.8085 107.038 0)
(58.5661 111.544 0)
(42.4808 115.115 0)
(25.7523 117.593 0)
(8.62769 118.728 0)
(204.644 0.0882226 0)
(204.635 0.265749 0)
(204.615 0.447528 0)
(204.586 0.636299 0)
(204.546 0.835008 0)
(204.494 1.04675 0)
(204.431 1.27482 0)
(204.354 1.52275 0)
(204.263 1.79438 0)
(204.156 2.09391 0)
(204.032 2.42593 0)
(203.887 2.79552 0)
(203.721 3.20833 0)
(203.529 3.6706 0)
(203.308 4.1893 0)
(203.055 4.7722 0)
(202.766 5.42795 0)
(202.434 6.16619 0)
(202.055 6.99768 0)
(201.62 7.93437 0)
(201.123 8.98957 0)
(200.553 10.178 0)
(199.899 11.5159 0)
(199.15 13.0213 0)
(198.289 14.7138 0)
(197.299 16.6147 0)
(196.16 18.7473 0)
(194.849 21.1364 0)
(193.336 23.8084 0)
(191.589 26.7908 0)
(189.571 30.1118 0)
(187.236 33.7996 0)
(184.532 37.8813 0)
(181.4 42.3815 0)
(177.772 47.3204 0)
(173.569 52.7113 0)
(168.704 58.5575 0)
(163.083 64.8489 0)
(156.6 71.5574 0)
(149.148 78.6321 0)
(140.618 85.9938 0)
(130.908 93.5296 0)
(119.933 101.089 0)
(107.636 108.486 0)
(94.0007 115.503 0)
(79.0639 121.896 0)
(62.9246 127.414 0)
(45.7511 131.811 0)
(27.7808 134.875 0)
(9.31515 136.295 0)
(204.822 0.0922399 0)
(204.815 0.277854 0)
(204.801 0.467926 0)
(204.78 0.66533 0)
(204.752 0.873154 0)
(204.715 1.09465 0)
(204.67 1.33327 0)
(204.616 1.59275 0)
(204.551 1.87711 0)
(204.474 2.19076 0)
(204.385 2.53858 0)
(204.281 2.92593 0)
(204.161 3.35876 0)
(204.022 3.84372 0)
(203.863 4.38821 0)
(203.679 5.0005 0)
(203.468 5.68982 0)
(203.226 6.46653 0)
(202.947 7.34218 0)
(202.626 8.3297 0)
(202.256 9.44351 0)
(201.83 10.6997 0)
(201.337 12.116 0)
(200.768 13.7124 0)
(200.11 15.5108 0)
(199.345 17.5351 0)
(198.457 19.8117 0)
(197.423 22.3692 0)
(196.216 25.2384 0)
(194.806 28.452 0)
(193.154 32.0445 0)
(191.216 36.0511 0)
(188.939 40.507 0)
(186.26 45.446 0)
(183.104 50.8984 0)
(179.387 56.8883 0)
(175.01 63.4301 0)
(169.86 70.5241 0)
(163.812 78.1514 0)
(156.732 86.2672 0)
(148.477 94.794 0)
(138.905 103.61 0)
(127.889 112.541 0)
(115.334 121.367 0)
(101.19 129.821 0)
(85.4719 137.594 0)
(68.2744 144.358 0)
(49.7863 149.785 0)
(30.2927 153.586 0)
(10.168 155.369 0)
(205.006 0.0948712 0)
(205.003 0.285784 0)
(204.995 0.481295 0)
(204.982 0.684368 0)
(204.966 0.898193 0)
(204.945 1.12612 0)
(204.919 1.37174 0)
(204.887 1.63888 0)
(204.849 1.93173 0)
(204.804 2.25487 0)
(204.752 2.61334 0)
(204.69 3.01272 0)
(204.619 3.45922 0)
(204.537 3.95977 0)
(204.441 4.52212 0)
(204.33 5.15492 0)
(204.201 5.86791 0)
(204.052 6.672 0)
(203.879 7.57944 0)
(203.678 8.60395 0)
(203.443 9.76096 0)
(203.17 11.0677 0)
(202.849 12.5435 0)
(202.473 14.21 0)
(202.032 16.0911 0)
(201.51 18.2135 0)
(200.894 20.6067 0)
(200.162 23.3031 0)
(199.292 26.3381 0)
(198.254 29.7501 0)
(197.011 33.5802 0)
(195.522 37.8718 0)
(193.731 42.6695 0)
(191.575 48.0182 0)
(188.975 53.9611 0)
(185.839 60.5362 0)
(182.056 67.7732 0)
(177.497 75.6881 0)
(172.015 84.2768 0)
(165.444 93.5086 0)
(157.599 103.317 0)
(148.285 113.58 0)
(137.32 124.095 0)
(124.555 134.606 0)
(109.889 144.79 0)
(93.298 154.26 0)
(74.8614 162.583 0)
(54.7869 169.318 0)
(33.4192 174.064 0)
(11.2318 176.319 0)
(205.195 0.0960731 0)
(205.194 0.289409 0)
(205.192 0.487414 0)
(205.189 0.6931 0)
(205.185 0.909707 0)
(205.179 1.14065 0)
(205.172 1.38956 0)
(205.164 1.66037 0)
(205.154 1.95732 0)
(205.142 2.28511 0)
(205.127 2.64887 0)
(205.109 3.05433 0)
(205.088 3.50787 0)
(205.063 4.01659 0)
(205.033 4.58847 0)
(204.997 5.23247 0)
(204.954 5.95867 0)
(204.902 6.7784 0)
(204.838 7.70445 0)
(204.762 8.75119 0)
(204.668 9.93485 0)
(204.554 11.2737 0)
(204.414 12.7883 0)
(204.242 14.5018 0)
(204.03 16.4401 0)
(203.767 18.6323 0)
(203.441 21.111 0)
(203.035 23.9123 0)
(202.529 27.0764 0)
(201.897 30.6474 0)
(201.107 34.6736 0)
(200.116 39.2072 0)
(198.874 44.3037 0)
(197.316 50.0211 0)
(195.362 56.4176 0)
(192.912 63.5496 0)
(189.846 71.4667 0)
(186.02 80.2063 0)
(181.262 89.7861 0)
(175.376 100.198 0)
(168.131 111.404 0)
(159.25 123.309 0)
(148.477 135.653 0)
(135.598 148.159 0)
(120.434 160.446 0)
(102.894 172.026 0)
(83.019 182.331 0)
(61.0291 190.759 0)
(37.3422 196.743 0)
(12.5698 199.622 0)
(205.384 0.0958234 0)
(205.386 0.288661 0)
(205.39 0.486168 0)
(205.396 0.691359 0)
(205.404 0.907478 0)
(205.415 1.13794 0)
(205.427 1.3864 0)
(205.443 1.65678 0)
(205.461 1.95336 0)
(205.481 2.28084 0)
(205.505 2.64442 0)
(205.531 3.04986 0)
(205.561 3.5036 0)
(205.595 4.01283 0)
(205.631 4.58567 0)
(205.672 5.23121 0)
(205.715 5.95975 0)
(205.762 6.78288 0)
(205.811 7.71372 0)
(205.862 8.76714 0)
(205.913 9.95994 0)
(205.964 11.3112 0)
(206.01 12.8424 0)
(206.049 14.578 0)
(206.076 16.5456 0)
(206.084 18.7765 0)
(206.064 21.306 0)
(206.003 24.1737 0)
(205.887 27.4244 0)
(205.693 31.1081 0)
(205.393 35.2804 0)
(204.951 40.0029 0)
(204.32 45.3428 0)
(203.437 51.3726 0)
(202.222 58.169 0)
(200.575 65.8101 0)
(198.366 74.3714 0)
(195.435 83.9187 0)
(191.59 94.4978 0)
(186.611 106.124 0)
(180.23 118.82 0)
(172.03 132.617 0)
(161.653 147.055 0)
(148.831 161.923 0)
(133.258 176.778 0)
(114.727 191.013 0)
(93.2039 203.877 0)
(68.8994 214.539 0)
(42.3175 222.184 0)
(14.2698 225.897 0)
(205.571 0.094122 0)
(205.576 0.283539 0)
(205.586 0.477556 0)
(205.601 0.679142 0)
(205.622 0.891495 0)
(205.648 1.11799 0)
(205.68 1.36221 0)
(205.719 1.62806 0)
(205.765 1.91976 0)
(205.818 2.24197 0)
(205.88 2.59984 0)
(205.951 2.99908 0)
(206.031 3.44611 0)
(206.123 3.94811 0)
(206.226 4.51316 0)
(206.343 5.15039 0)
(206.473 5.87013 0)
(206.619 6.68407 0)
(206.781 7.60548 0)
(206.961 8.64945 0)
(207.159 9.83314 0)
(207.377 11.1761 0)
(207.613 12.7005 0)
(207.868 14.4317 0)
(208.141 16.3987 0)
(208.428 18.6345 0)
(208.725 21.1766 0)
(209.026 24.068 0)
(209.319 27.3574 0)
(209.589 31.1004 0)
(209.816 35.3598 0)
(209.969 40.2066 0)
(210.007 45.7202 0)
(209.875 51.9892 0)
(209.498 59.1106 0)
(208.776 67.1883 0)
(207.577 76.3306 0)
(205.726 86.6421 0)
(203.004 98.2055 0)
(199.191 111.025 0)
(194.073 125.177 0)
(186.896 141.309 0)
(177.171 158.039 0)
(164.701 175.692 0)
(148.918 193.696 0)
(129.429 211.303 0)
(106.055 227.524 0)
(78.9547 241.197 0)
(48.7118 251.137 0)
(16.4532 256.059 0)
(205.754 0.0909901 0)
(205.761 0.274109 0)
(205.777 0.461685 0)
(205.801 0.6566 0)
(205.834 0.861956 0)
(205.876 1.08102 0)
(205.927 1.3173 0)
(205.989 1.57456 0)
(206.062 1.85692 0)
(206.147 2.16892 0)
(206.246 2.51558 0)
(206.36 2.90249 0)
(206.491 3.33592 0)
(206.639 3.82292 0)
(206.809 4.37143 0)
(207 4.99046 0)
(207.217 5.69018 0)
(207.461 6.48221 0)
(207.735 7.37973 0)
(208.043 8.39782 0)
(208.387 9.55366 0)
(208.771 10.8669 0)
(209.198 12.3602 0)
(209.67 14.0594 0)
(210.191 15.9941 0)
(210.762 18.1987 0)
(211.384 20.7124 0)
(212.055 23.5806 0)
(212.773 26.8555 0)
(213.528 30.5976 0)
(214.31 34.876 0)
(215.096 39.7708 0)
(215.857 45.3735 0)
(216.548 51.7887 0)
(217.105 59.1351 0)
(217.436 67.546 0)
(217.414 77.169 0)
(216.854 88.1653 0)
(215.464 100.709 0)
(212.665 114.997 0)
(214.622 126.581 0)
(201.219 144.129 0)
(193.586 162.543 0)
(182.703 182.355 0)
(168.129 203.023 0)
(149.24 223.75 0)
(125.573 243.404 0)
(97.0272 260.533 0)
(64.1007 273.573 0)
(27.9047 281.116 0)
(205.928 0.0864723 0)
(205.939 0.260502 0)
(205.961 0.438779 0)
(205.993 0.62405 0)
(206.037 0.819271 0)
(206.094 1.02756 0)
(206.164 1.25227 0)
(206.247 1.49699 0)
(206.347 1.76566 0)
(206.463 2.06264 0)
(206.598 2.39272 0)
(206.754 2.76129 0)
(206.932 3.17438 0)
(207.137 3.63876 0)
(207.369 4.16211 0)
(207.634 4.75314 0)
(207.934 5.42175 0)
(208.273 6.1792 0)
(208.657 7.0384 0)
(209.09 8.0141 0)
(209.577 9.12323 0)
(210.125 10.3853 0)
(210.739 11.8226 0)
(211.426 13.4612 0)
(212.194 15.3309 0)
(213.048 17.4665 0)
(213.995 19.9082 0)
(215.041 22.7031 0)
(216.19 25.9059 0)
(217.443 29.5804 0)
(218.798 33.8014 0)
(220.247 38.6563 0)
(221.774 44.2478 0)
(223.35 50.6954 0)
(224.927 58.1391 0)
(226.435 66.7414 0)
(227.767 76.6907 0)
(228.776 88.2048 0)
(229.276 101.541 0)
(229.151 117.032 0)
(231.25 130.323 0)
(219.934 148.142 0)
(213.784 169.331 0)
(204.392 192.589 0)
(190.71 217.547 0)
(171.748 243.368 0)
(146.565 268.779 0)
(114.684 291.697 0)
(76.5388 309.766 0)
(33.6501 320.684 0)
(206.093 0.0806336 0)
(206.107 0.242915 0)
(206.133 0.409168 0)
(206.174 0.581958 0)
(206.229 0.764053 0)
(206.3 0.958373 0)
(206.387 1.16804 0)
(206.491 1.39644 0)
(206.616 1.64727 0)
(206.761 1.92461 0)
(206.93 2.23297 0)
(207.125 2.57742 0)
(207.35 2.96364 0)
(207.607 3.39805 0)
(207.9 3.8879 0)
(208.234 4.44146 0)
(208.613 5.06812 0)
(209.044 5.77865 0)
(209.532 6.58537 0)
(210.084 7.50245 0)
(210.709 8.5462 0)
(211.414 9.73547 0)
(212.21 11.0921 0)
(213.106 12.6413 0)
(214.113 14.4127 0)
(215.244 16.4407 0)
(216.512 18.7655 0)
(217.928 21.4347 0)
(219.507 24.5039 0)
(221.259 28.0392 0)
(223.196 32.1188 0)
(225.325 36.8358 0)
(227.645 42.3011 0)
(230.15 48.6471 0)
(232.816 56.0322 0)
(235.601 64.6454 0)
(238.43 74.712 0)
(241.186 86.4975 0)
(243.691 100.307 0)
(245.664 116.459 0)
(249.89 130.591 0)
(240.704 151.581 0)
(237.152 175.498 0)
(230.198 202.626 0)
(218.36 232.706 0)
(200.251 264.615 0)
(174.03 297.834 0)
(138.413 328.593 0)
(93.5877 353.642 0)
(41.3837 369.078 0)
(206.245 0.0735604 0)
(206.261 0.221609 0)
(206.293 0.373288 0)
(206.341 0.530946 0)
(206.406 0.697113 0)
(206.489 0.874463 0)
(206.592 1.06586 0)
(206.717 1.2744 0)
(206.864 1.50347 0)
(207.037 1.75682 0)
(207.237 2.03861 0)
(207.469 2.3535 0)
(207.736 2.70671 0)
(208.042 3.10418 0)
(208.391 3.55262 0)
(208.79 4.05967 0)
(209.243 4.63408 0)
(209.759 5.28586 0)
(210.345 6.02653 0)
(211.01 6.86935 0)
(211.764 7.82966 0)
(212.617 8.92524 0)
(213.584 10.1768 0)
(214.678 11.6085 0)
(215.914 13.2485 0)
(217.31 15.1302 0)
(218.885 17.2928 0)
(220.66 19.7826 0)
(222.657 22.655 0)
(224.899 25.9761 0)
(227.411 29.8251 0)
(230.218 34.2978 0)
(233.34 39.5099 0)
(236.795 45.6025 0)
(240.592 52.7477 0)
(244.725 61.156 0)
(249.164 71.0852 0)
(253.838 82.8494 0)
(258.613 96.8277 0)
(263.246 113.468 0)
(269.964 127.69 0)
(263.636 152.019 0)
(263.785 178.599 0)
(260.662 209.793 0)
(252.333 245.879 0)
(239.086 293.146 0)
(212.202 338.076 0)
(170.898 381.41 0)
(114.613 417.738 0)
(45.8092 440.03 0)
(206.382 0.0653585 0)
(206.4 0.196901 0)
(206.436 0.331677 0)
(206.491 0.471775 0)
(206.565 0.619452 0)
(206.661 0.777088 0)
(206.778 0.947237 0)
(206.92 1.13266 0)
(207.088 1.33639 0)
(207.285 1.56178 0)
(207.514 1.81253 0)
(207.78 2.09282 0)
(208.085 2.40736 0)
(208.435 2.76145 0)
(208.835 3.16113 0)
(209.293 3.61331 0)
(209.814 4.12586 0)
(210.407 4.70786 0)
(211.082 5.36975 0)
(211.85 6.12359 0)
(212.722 6.98341 0)
(213.713 7.96548 0)
(214.837 9.08886 0)
(216.113 10.3758 0)
(217.562 11.8527 0)
(219.204 13.5505 0)
(221.067 15.5062 0)
(223.179 17.7637 0)
(225.571 20.376 0)
(228.28 23.4068 0)
(231.345 26.9335 0)
(234.808 31.0507 0)
(238.715 35.8746 0)
(243.112 41.5488 0)
(248.046 48.2522 0)
(253.557 56.2084 0)
(259.672 65.6989 0)
(266.393 77.0785 0)
(273.671 90.7962 0)
(281.369 107.42 0)
(290.878 121.057 0)
(288.453 148.479 0)
(293.53 177.255 0)
(296.007 212.242 0)
(293.716 254.374 0)
(287.767 312.946 0)
(263.417 371.607 0)
(219.379 432.821 0)
(151.646 487.599 0)
(61.988 522.8 0)
(206.502 0.0561514 0)
(206.522 0.169166 0)
(206.562 0.284962 0)
(206.622 0.405339 0)
(206.705 0.532241 0)
(206.81 0.667717 0)
(206.941 0.813968 0)
(207.098 0.973378 0)
(207.284 1.14856 0)
(207.503 1.3424 0)
(207.757 1.55812 0)
(208.052 1.79932 0)
(208.391 2.07008 0)
(208.78 2.37499 0)
(209.225 2.71932 0)
(209.734 3.10905 0)
(210.315 3.55106 0)
(210.977 4.05326 0)
(211.731 4.62479 0)
(212.59 5.27624 0)
(213.567 6.01994 0)
(214.679 6.87025 0)
(215.944 7.84404 0)
(217.384 8.96115 0)
(219.023 10.245 0)
(220.887 11.7236 0)
(223.011 13.4302 0)
(225.428 15.4047 0)
(228.182 17.6957 0)
(231.32 20.362 0)
(234.896 23.4758 0)
(238.972 27.1261 0)
(243.619 31.4239 0)
(248.915 36.5083 0)
(254.946 42.5553 0)
(261.809 49.7897 0)
(269.599 58.5011 0)
(278.413 69.0659 0)
(288.323 81.9779 0)
(299.353 97.8919 0)
(311.807 110.125 0)
(314.439 139.985 0)
(325.722 169.951 0)
(335.805 207.772 0)
(342.415 255.487 0)
(348.839 325.096 0)
(333.368 401.706 0)
(291.465 489.383 0)
(211.325 576.183 0)
(89.228 636.864 0)
(206.603 0.0460796 0)
(206.624 0.138823 0)
(206.667 0.233853 0)
(206.733 0.332649 0)
(206.822 0.436807 0)
(206.936 0.548015 0)
(207.077 0.668081 0)
(207.247 0.79897 0)
(207.449 0.942833 0)
(207.686 1.10205 0)
(207.962 1.27927 0)
(208.281 1.47748 0)
(208.649 1.70004 0)
(209.071 1.95076 0)
(209.554 2.23397 0)
(210.107 2.55467 0)
(210.738 2.91854 0)
(211.459 3.33219 0)
(212.28 3.80321 0)
(213.216 4.34045 0)
(214.283 4.95423 0)
(215.499 5.65662 0)
(216.884 6.4618 0)
(218.464 7.38653 0)
(220.266 8.45071 0)
(222.323 9.67809 0)
(224.672 11.0972 0)
(227.355 12.7424 0)
(230.425 14.6556 0)
(233.94 16.8882 0)
(237.968 19.5035 0)
(242.59 22.5807 0)
(247.901 26.219 0)
(254.011 30.5448 0)
(261.051 35.7199 0)
(269.17 41.9549 0)
(278.547 49.5263 0)
(289.38 58.8026 0)
(301.896 70.2815 0)
(316.325 84.6462 0)
(331.648 94.5369 0)
(340.394 125.664 0)
(358.988 155.156 0)
(378.737 193.823 0)
(397.952 245.077 0)
(423.919 323.327 0)
(427.885 419.893 0)
(401.012 544.542 0)
(315.134 688.851 0)
(140.982 806.724 0)
(206.683 0.0352968 0)
(206.706 0.106339 0)
(206.751 0.179134 0)
(206.821 0.254818 0)
(206.916 0.334614 0)
(207.037 0.419818 0)
(207.186 0.51182 0)
(207.367 0.612124 0)
(207.581 0.722386 0)
(207.832 0.844435 0)
(208.125 0.98031 0)
(208.464 1.1323 0)
(208.854 1.30301 0)
(209.303 1.49535 0)
(209.817 1.7127 0)
(210.404 1.95888 0)
(211.076 2.23832 0)
(211.843 2.5561 0)
(212.718 2.91813 0)
(213.717 3.33128 0)
(214.856 3.80358 0)
(216.155 4.34443 0)
(217.638 4.96493 0)
(219.332 5.67821 0)
(221.266 6.49992 0)
(223.479 7.44877 0)
(226.011 8.54734 0)
(228.913 9.82301 0)
(232.242 11.3093 0)
(236.067 13.0473 0)
(240.47 15.0885 0)
(245.548 17.4972 0)
(251.417 20.3551 0)
(258.218 23.7668 0)
(266.119 27.8683 0)
(275.327 32.8387 0)
(286.096 38.9168 0)
(298.735 46.4272 0)
(313.628 55.8182 0)
(331.235 67.7223 0)
(349.04 74.306 0)
(364.619 104.982 0)
(391.076 131.675 0)
(421.953 167.944 0)
(457.113 218.358 0)
(510.2 297.909 0)
(549.443 409.414 0)
(567.604 576.189 0)
(488.181 826.526 0)
(308.037 1096.55 0)
(206.741 0.0239689 0)
(206.765 0.0722115 0)
(206.813 0.121646 0)
(206.885 0.173043 0)
(206.984 0.227236 0)
(207.11 0.285105 0)
(207.266 0.347595 0)
(207.454 0.415731 0)
(207.677 0.490638 0)
(207.939 0.573561 0)
(208.244 0.66589 0)
(208.597 0.769187 0)
(209.004 0.885216 0)
(209.472 1.01598 0)
(210.008 1.16377 0)
(210.622 1.33121 0)
(211.323 1.52132 0)
(212.124 1.73758 0)
(213.039 1.98403 0)
(214.083 2.2654 0)
(215.275 2.58719 0)
(216.636 2.95588 0)
(218.19 3.3791 0)
(219.967 3.86594 0)
(222 4.4272 0)
(224.328 5.07589 0)
(226.996 5.8277 0)
(230.06 6.70174 0)
(233.582 7.72145 0)
(237.64 8.91585 0)
(242.325 10.3212 0)
(247.747 11.9831 0)
(254.04 13.9601 0)
(261.368 16.3273 0)
(269.933 19.1837 0)
(279.989 22.6602 0)
(291.852 26.9339 0)
(305.93 32.2485 0)
(322.747 38.9452 0)
(342.988 47.5123 0)
(362.544 49.9725 0)
(385.026 78.0499 0)
(418.907 99.1955 0)
(460.905 128.801 0)
(513.293 171.652 0)
(597.473 238.899 0)
(686.809 346.617 0)
(791.409 531.135 0)
(855.208 909.833 0)
(821.858 1548.73 0)
(206.777 0.0121431 0)
(206.802 0.0365836 0)
(206.851 0.0616284 0)
(206.925 0.0876682 0)
(207.026 0.115125 0)
(207.155 0.144446 0)
(207.315 0.176109 0)
(207.507 0.210635 0)
(207.736 0.248593 0)
(208.005 0.290618 0)
(208.317 0.337412 0)
(208.679 0.38977 0)
(209.097 0.448587 0)
(209.576 0.514882 0)
(210.126 0.589818 0)
(210.756 0.674727 0)
(211.476 0.771147 0)
(212.298 0.880851 0)
(213.237 1.0059 0)
(214.31 1.1487 0)
(215.535 1.31205 0)
(216.934 1.49927 0)
(218.533 1.71427 0)
(220.362 1.96167 0)
(222.456 2.24704 0)
(224.856 2.57703 0)
(227.609 2.95972 0)
(230.774 3.40496 0)
(234.418 3.92484 0)
(238.623 4.53437 0)
(243.486 5.25236 0)
(249.126 6.10262 0)
(255.688 7.11563 0)
(263.353 8.33096 0)
(272.345 9.80068 0)
(282.947 11.5944 0)
(295.523 13.8066 0)
(310.545 16.5685 0)
(328.635 20.0651 0)
(350.618 24.5634 0)
(370.921 22.1438 0)
(399.522 45.6643 0)
(439.136 58.5773 0)
(490.08 77.0419 0)
(557.127 104.539 0)
(667.651 142.085 0)
(807.075 214.409 0)
(1015.41 348.452 0)
(1353.11 573.462 0)
(2090.29 1099 0)
(206.79 -1.81223e-09 0)
(206.814 9.49413e-09 0)
(206.863 5.33184e-08 0)
(206.938 1.45114e-07 0)
(207.04 2.96442e-07 0)
(207.171 5.13533e-07 0)
(207.331 7.97548e-07 0)
(207.526 1.14527e-06 0)
(207.756 1.55028e-06 0)
(208.027 2.00402e-06 0)
(208.342 2.4969e-06 0)
(208.707 3.01906e-06 0)
(209.128 3.56117e-06 0)
(209.612 4.11484e-06 0)
(210.167 4.67291e-06 0)
(210.802 5.22989e-06 0)
(211.528 5.7817e-06 0)
(212.357 6.32547e-06 0)
(213.305 6.85999e-06 0)
(214.387 7.38474e-06 0)
(215.623 7.89985e-06 0)
(217.035 8.40608e-06 0)
(218.649 8.90427e-06 0)
(220.496 9.39514e-06 0)
(222.611 9.87928e-06 0)
(225.035 1.03568e-05 0)
(227.818 1.08279e-05 0)
(231.017 1.12923e-05 0)
(234.703 1.17509e-05 0)
(238.957 1.22056e-05 0)
(243.881 1.26603e-05 0)
(249.596 1.31215e-05 0)
(256.251 1.35977e-05 0)
(264.032 1.40976e-05 0)
(273.171 1.46262e-05 0)
(283.963 1.5182e-05 0)
(296.787 1.57554e-05 0)
(312.14 1.63289e-05 0)
(330.68 1.68781e-05 0)
(353.296 1.73576e-05 0)
(373.067 -7.29429 0)
(406.225 9.31579 0)
(448.631 12.0046 0)
(504.027 15.8837 0)
(578.621 21.7382 0)
(699.418 16.5364 0)
(863.522 25.3227 0)
(1124.97 41.9483 0)
(1542.43 35.9659 0)
(2289.49 56.0238 0)
(206.777 -0.0121431 0)
(206.802 -0.0365836 0)
(206.851 -0.0616283 0)
(206.925 -0.0876679 0)
(207.026 -0.115125 0)
(207.155 -0.144445 0)
(207.315 -0.176107 0)
(207.507 -0.210633 0)
(207.736 -0.24859 0)
(208.005 -0.290614 0)
(208.317 -0.337407 0)
(208.679 -0.389764 0)
(209.097 -0.44858 0)
(209.576 -0.514874 0)
(210.126 -0.589809 0)
(210.756 -0.674717 0)
(211.476 -0.771135 0)
(212.298 -0.880838 0)
(213.237 -1.00589 0)
(214.31 -1.14868 0)
(215.535 -1.31204 0)
(216.934 -1.49926 0)
(218.533 -1.71425 0)
(220.362 -1.96165 0)
(222.456 -2.24702 0)
(224.856 -2.57701 0)
(227.609 -2.9597 0)
(230.774 -3.40494 0)
(234.418 -3.92481 0)
(238.623 -4.53434 0)
(243.486 -5.25233 0)
(249.126 -6.10259 0)
(255.688 -7.1156 0)
(263.353 -8.33094 0)
(272.345 -9.80065 0)
(282.947 -11.5943 0)
(295.523 -13.8066 0)
(310.545 -16.5685 0)
(328.635 -20.0651 0)
(350.618 -24.5634 0)
(368.635 -36.26 0)
(403.944 -27.7711 0)
(445.419 -35.7209 0)
(499.291 -47.1674 0)
(571.284 -64.3658 0)
(680.513 -112.467 0)
(828.965 -170.869 0)
(1057.8 -279.961 0)
(1395.4 -514.479 0)
(2158.8 -945.197 0)
(206.741 -0.0239689 0)
(206.765 -0.0722115 0)
(206.813 -0.121646 0)
(206.885 -0.173043 0)
(206.984 -0.227236 0)
(207.11 -0.285105 0)
(207.266 -0.347594 0)
(207.454 -0.415729 0)
(207.677 -0.490635 0)
(207.939 -0.573557 0)
(208.244 -0.665885 0)
(208.597 -0.769181 0)
(209.004 -0.885209 0)
(209.472 -1.01597 0)
(210.008 -1.16376 0)
(210.622 -1.3312 0)
(211.323 -1.52131 0)
(212.124 -1.73756 0)
(213.039 -1.98402 0)
(214.083 -2.26539 0)
(215.275 -2.58717 0)
(216.636 -2.95586 0)
(218.19 -3.37908 0)
(219.967 -3.86592 0)
(222 -4.42718 0)
(224.328 -5.07587 0)
(226.996 -5.82768 0)
(230.06 -6.70172 0)
(233.582 -7.72143 0)
(237.64 -8.91583 0)
(242.325 -10.3211 0)
(247.747 -11.9831 0)
(254.04 -13.96 0)
(261.368 -16.3273 0)
(269.933 -19.1836 0)
(279.989 -22.6601 0)
(291.852 -26.9339 0)
(305.93 -32.2485 0)
(322.747 -38.9452 0)
(342.988 -47.5123 0)
(358.362 -62.4549 0)
(393.067 -62.5144 0)
(430.143 -79.8605 0)
(477.022 -104.44 0)
(537.331 -140.587 0)
(618.288 -218.225 0)
(720.146 -320.372 0)
(851.388 -499.993 0)
(965.052 -831.584 0)
(956.046 -1598.48 0)
(206.683 -0.0352969 0)
(206.706 -0.106339 0)
(206.751 -0.179134 0)
(206.821 -0.254818 0)
(206.916 -0.334614 0)
(207.037 -0.419817 0)
(207.186 -0.511818 0)
(207.367 -0.612122 0)
(207.581 -0.722383 0)
(207.832 -0.844431 0)
(208.125 -0.980306 0)
(208.464 -1.1323 0)
(208.854 -1.303 0)
(209.303 -1.49535 0)
(209.817 -1.71269 0)
(210.404 -1.95887 0)
(211.076 -2.2383 0)
(211.843 -2.55608 0)
(212.718 -2.91812 0)
(213.717 -3.33127 0)
(214.856 -3.80356 0)
(216.155 -4.34442 0)
(217.638 -4.96491 0)
(219.332 -5.67819 0)
(221.266 -6.4999 0)
(223.479 -7.44875 0)
(226.011 -8.54732 0)
(228.913 -9.82299 0)
(232.242 -11.3092 0)
(236.067 -13.0473 0)
(240.47 -15.0885 0)
(245.548 -17.4972 0)
(251.417 -20.3551 0)
(258.218 -23.7668 0)
(266.119 -27.8683 0)
(275.327 -32.8386 0)
(286.096 -38.9168 0)
(298.735 -46.4272 0)
(313.628 -55.8181 0)
(331.235 -67.7223 0)
(343.35 -84.879 0)
(375.373 -92.2613 0)