/*--------------------------------*- C++ -*----------------------------------*\
| =========                 |                                                 |
| \\      /  F ield         | foam-extend: Open Source CFD                    |
|  \\    /   O peration     | Version:     4.0                                |
|   \\  /    A nd           | Web:         http://www.foam-extend.org         |
|    \\/     M anipulation  |                                                 |
\*---------------------------------------------------------------------------*/
FoamFile
{
    version     2.0;
    format      ascii;
    class       regIOobject;
    location    "0.0007/uniform";
    object      profilingInfo;
}
// * * * * * * * * * * * * * * * * * * * * * * * * * * * * * * * * * * * * * //

profilingInfo
(

    {
        id              17;
        parentId        15;
        description     "Foam::Time::writeObject - outputTime";
        calls           7;
        totalTime       0.999847;
        childTime       0;
        onStack         1;
    }

    {
        id              15;
        parentId        1;
        description     "Foam::Time::writeObject";
        calls           78;
        totalTime       1.00023;
        childTime       0.999847;
        onStack         1;
    }

    {
        id              1;
        description     "application::main";
        calls           1;
        totalTime       11.0322;
        childTime       5.4833;
        onStack         1;
    }

    {
        id              5;
        parentId        4;
        description     "functionObjectList::read";
        calls           1;
        totalTime       2e-06;
        childTime       0;
        onStack         0;
    }

    {
        id              16;
        parentId        1;
        description     "functionObjects_.execute()";
        calls           77;
        totalTime       0.000244;
        childTime       0;
        onStack         0;
    }

    {
        id              4;
        parentId        1;
        description     "functionObjects_.start()";
        calls           1;
        totalTime       8e-06;
        childTime       2e-06;
        onStack         0;
    }

    {
        id              6;
        parentId        1;
        description     "fvMatrix::solve_alpha1";
        calls           78;
        totalTime       0.131183;
        childTime       0.107332;
        onStack         0;
    }

    {
        id              13;
        parentId        1;
        description     "fvMatrix::solve_k";
        calls           78;
        totalTime       0.638914;
        childTime       0.617884;
        onStack         0;
    }

    {
        id              11;
        parentId        1;
        description     "fvMatrix::solve_omega";
        calls           78;
        totalTime       0.636425;
        childTime       0.593224;
        onStack         0;
    }

    {
        id              2;
        parentId        1;
        description     "fvMatrix::solve_pcorr";
        calls           1;
        totalTime       0.006152;
        childTime       0.005833;
        onStack         0;
    }

    {
        id              8;
        parentId        1;
        description     "fvMatrix::solve_pd";
        calls           78;
        totalTime       3.07014;
        childTime       3.0543;
        onStack         0;
    }

    {
        id              7;
        parentId        6;
        description     "lduMatrix::solver_alpha1";
        calls           78;
        totalTime       0.107332;
        childTime       0;
        onStack         0;
    }

    {
        id              10;
        parentId        9;
        description     "lduMatrix::solver_coarsestLevelCorr";
        calls           566;
        totalTime       0.182633;
        childTime       0;
        onStack         0;
    }

    {
        id              14;
        parentId        13;
        description     "lduMatrix::solver_k";
        calls           78;
        totalTime       0.617884;
        childTime       0;
        onStack         0;
    }

    {
        id              12;
        parentId        11;
        description     "lduMatrix::solver_omega";
        calls           78;
        totalTime       0.593224;
        childTime       0;
        onStack         0;
    }

    {
        id              3;
        parentId        2;
        description     "lduMatrix::solver_pcorr";
        calls           1;
        totalTime       0.005833;
        childTime       0;
        onStack         0;
    }

    {
        id              9;
        parentId        8;
        description     "lduMatrix::solver_pd";
        calls           78;
        totalTime       3.0543;
        childTime       0.182633;
        onStack         0;
    }
);


// ************************************************************************* //
