/*--------------------------------*- C++ -*----------------------------------*\
| =========                 |                                                 |
| \\      /  F ield         | foam-extend: Open Source CFD                    |
|  \\    /   O peration     | Version:     4.0                                |
|   \\  /    A nd           | Web:         http://www.foam-extend.org         |
|    \\/     M anipulation  |                                                 |
\*---------------------------------------------------------------------------*/
FoamFile
{
    version     2.0;
    format      ascii;
    class       volScalarField;
    location    "6e-05";
    object      k;
}
// * * * * * * * * * * * * * * * * * * * * * * * * * * * * * * * * * * * * * //

dimensions      [0 2 -2 0 0 0 0];

internalField   nonuniform List<scalar> 
28770
(
0.00921498
0.000977035
0.00085696
0.00115536
0.00150155
0.00179075
0.00199631
0.0021228
0.00219033
0.00222141
0.00223301
0.0022353
0.00223409
0.00223116
0.00222704
0.00222229
0.00221677
0.00221066
0.00220362
0.00219589
0.002187
0.00217728
0.00216614
0.00215402
0.00214019
0.00212523
0.00210824
0.00208999
0.00206939
0.00204743
0.00202285
0.00199689
0.00196814
0.0019381
0.00190531
0.00187151
0.00183523
0.00179841
0.00175952
0.00171995
0.00167652
0.00162563
0.00155421
0.00144152
0.00125672
0.000978689
0.000625688
0.000282203
6.40471e-05
4.27582e-06
0.041368
0.0205499
0.0245073
0.0338755
0.0439834
0.0524364
0.0584492
0.0621507
0.0641272
0.0650373
0.0653764
0.0654432
0.0654065
0.0653197
0.0651976
0.0650573
0.0648934
0.0647132
0.0645045
0.0642761
0.0640126
0.0637255
0.0633953
0.0630376
0.0626277
0.0621863
0.0616829
0.0611445
0.0605342
0.0598867
0.0591587
0.0583934
0.0575423
0.0566575
0.055687
0.0546917
0.053619
0.0525351
0.051386
0.0502216
0.0489396
0.0474423
0.0453377
0.0420234
0.0365891
0.028422
0.0180629
0.00800865
0.00168918
6.56506e-05
0.0847287
0.102429
0.152092
0.217657
0.282796
0.336857
0.375347
0.399089
0.411808
0.417697
0.419925
0.420407
0.420212
0.419707
0.418983
0.418146
0.417169
0.416092
0.414847
0.413481
0.411906
0.410187
0.408212
0.406068
0.403612
0.400962
0.39794
0.3947
0.39103
0.387123
0.382732
0.378102
0.372951
0.367579
0.361683
0.355615
0.349069
0.34243
0.335376
0.328182
0.32019
0.310674
0.296996
0.275013
0.238575
0.183568
0.113993
0.0477001
0.0088698
0.000316614
0.132603
0.267022
0.451967
0.660858
0.860661
1.02482
1.1415
1.21363
1.25248
1.27065
1.27769
1.27944
1.27904
1.27776
1.27584
1.27361
1.271
1.26811
1.26478
1.26112
1.25689
1.25228
1.24697
1.2412
1.23458
1.22743
1.21926
1.21049
1.20053
1.18992
1.17795
1.16531
1.1512
1.13644
1.12019
1.10341
1.08524
1.06673
1.04695
1.02657
1.00347
0.974967
0.932245
0.861234
0.74171
0.561197
0.336823
0.132689
0.0230303
0.000804951
0.184821
0.485387
0.883235
1.31936
1.72862
2.06144
2.29715
2.44309
2.52222
2.55971
2.57472
2.57905
2.57879
2.57693
2.57388
2.57024
2.56598
2.56126
2.5558
2.54979
2.54286
2.53528
2.52655
2.51704
2.50612
2.49429
2.48076
2.46618
2.4496
2.43186
2.4118
2.39053
2.3667
2.34168
2.31399
2.28527
2.25397
2.2219
2.18729
2.15099
2.10841
2.05265
1.96372
1.80926
1.54518
1.14851
0.668365
0.252411
0.0423824
0.00146953
0.234759
0.700672
1.32667
2.01595
2.66121
3.18404
3.55386
3.78341
3.90882
3.96912
3.99412
4.00234
4.00304
4.00136
3.99804
3.99392
3.98904
3.98364
3.97738
3.9705
3.96254
3.95382
3.94377
3.93279
3.92018
3.90648
3.89078
3.87382
3.85447
3.8337
3.81015
3.78507
3.75684
3.72708
3.69395
3.65942
3.62152
3.58238
3.53952
3.49327
3.43587
3.35381
3.21205
2.95346
2.5046
1.83473
1.0435
0.383744
0.0633443
0.00218785
0.276312
0.871606
1.67975
2.57974
3.42787
4.1176
4.60706
4.9124
5.08068
5.16281
5.19796
5.21061
5.2133
5.21241
5.20985
5.20637
5.20218
5.19751
5.1921
5.18615
5.17927
5.17171
5.16301
5.15349
5.14255
5.13064
5.11698
5.1022
5.08531
5.06716
5.04651
5.02448
4.99961
4.97332
4.94393
4.9132
4.87926
4.84391
4.80442
4.75974
4.69901
4.60093
4.41488
4.05773
3.42723
2.48762
1.39474
0.505155
0.0826504
0.00284891
0.306974
0.9872
1.91247
2.94916
3.93483
4.74351
5.32105
5.68377
5.88545
5.9852
6.02897
6.04571
6.05063
6.05084
6.04949
6.0472
6.04433
6.04111
6.03739
6.03329
6.02856
6.02337
6.0174
6.01089
6.0034
5.99528
5.98597
5.97593
5.96448
5.95221
5.93828
5.9235
5.90682
5.88931
5.86976
5.84944
5.82697
5.80347
5.77636
5.74279
5.68966
5.58845
5.37577
4.94626
4.17323
3.01583
1.67819
0.603037
0.0982284
0.00338236
0.326729
1.05605
2.04568
3.15702
4.21938
5.09814
5.73092
6.13095
6.35506
6.46701
6.517
6.53683
6.5435
6.54492
6.5445
6.54335
6.54174
6.53991
6.53779
6.53546
6.5328
6.52989
6.52656
6.52296
6.51886
6.51445
6.50945
6.50414
6.49815
6.49188
6.48484
6.4776
6.46958
6.46149
6.45266
6.44393
6.43453
6.42489
6.41289
6.39401
6.35418
6.25949
6.03821
5.56897
4.70611
3.40097
1.88945
0.677578
0.110253
0.00379517
0.337649
1.09243
2.11381
3.2625
4.36066
5.27393
5.93718
6.35855
6.59584
6.71515
6.76898
6.7908
6.79861
6.80089
6.80113
6.80074
6.80003
6.79917
6.79818
6.79711
6.7959
6.79462
6.79318
6.79167
6.78999
6.78828
6.78641
6.78458
6.78262
6.78083
6.77899
6.77753
6.77619
6.77553
6.77529
6.77605
6.77758
6.77988
6.78132
6.77606
6.75012
6.66642
6.4485
5.96485
5.05614
3.66393
2.0398
0.732552
0.119288
0.00410642
0.342851
1.10947
2.14513
3.3103
4.42431
5.35269
6.03003
6.46214
6.70628
6.82952
6.88545
6.90836
6.91682
6.91958
6.92027
6.92028
6.92008
6.91979
6.91946
6.91913
6.91878
6.91845
6.91812
6.91785
6.91762
6.91753
6.91754
6.91782
6.91832
6.9193
6.9207
6.9229
6.92585
6.93006
6.9355
6.94278
6.95189
6.9628
6.97445
6.98039
6.96665
6.89623
6.69013
6.21145
5.29079
3.85644
2.16023
0.779909
0.127379
0.00438721
0.345021
1.11656
2.15808
3.32998
4.45092
5.38443
6.06717
6.50445
6.75192
6.87709
6.93406
6.95752
6.96631
6.9693
6.97021
6.97045
6.97049
6.97049
6.9705
6.97054
6.97062
6.97078
6.97101
6.97139
6.9719
6.97266
6.97366
6.97507
6.9769
6.97942
6.98262
6.98694
6.99239
6.99959
7.0086
7.02018
7.03449
7.05172
7.07113
7.08667
7.0834
7.02687
6.83729
6.37479
5.46171
4.01081
2.26521
0.823623
0.135034
0.00465404
0.34581
1.11916
2.16285
3.33732
4.46122
5.39585
6.08009
6.51979
6.76889
6.895
6.95248
6.97622
6.98516
6.98826
6.98927
6.98961
6.98976
6.98989
6.99004
6.99024
6.99052
6.9909
6.99139
6.99207
6.99292
6.99409
6.99556
6.99753
7.00002
7.00333
7.00747
7.01297
7.0198
7.0288
7.03991
7.05434
7.07195
7.09374
7.11863
7.14121
7.15151
7.10931
6.94145
6.50649
5.61869
4.17074
2.38522
0.877251
0.144781
0.00499584
0.346047
1.11995
2.16433
3.33973
4.4649
5.39938
6.08372
6.52454
6.77451
6.90114
6.95889
6.98276
6.99178
6.99493
6.99598
6.99636
6.99656
6.99674
6.99694
6.99722
6.99757
6.99805
6.99865
6.99945
7.00046
7.00181
7.0035
7.00574
7.00856
7.01229
7.01695
7.02314
7.03084
7.04103
7.05366
7.0703
7.0908
7.11709
7.14809
7.18021
7.20319
7.17565
7.03533
6.63644
5.78491
4.34933
2.5255
0.942505
0.156861
0.00541184
0.346082
1.12008
2.16462
3.34034
4.46609
5.40016
6.08422
6.52559
6.77611
6.90309
6.96102
6.98499
6.99405
6.99723
6.99829
6.99869
6.9989
6.9991
6.99933
6.99963
7.00002
7.00053
7.00117
7.00204
7.00311
7.00455
7.00635
7.00875
7.01175
7.01576
7.02076
7.02746
7.03578
7.04697
7.06082
7.07956
7.10234
7.13339
7.1676
7.20946
7.25024
7.24463
7.13761
6.78687
5.99222
4.58994
2.73011
1.04654
0.177086
0.00581274
0.346051
1.12001
2.16452
3.34035
4.46642
5.40017
6.08392
6.52561
6.77655
6.9038
6.96189
6.98594
6.99503
6.99822
6.9993
6.9997
6.99992
7.00012
7.00036
7.00067
7.00107
7.0016
7.00226
7.00315
7.00426
7.00575
7.00762
7.01012
7.01324
7.01744
7.02269
7.02975
7.0386
7.05055
7.06548
7.08572
7.1107
7.14451
7.1839
7.23718
7.2877
7.29714
7.25498
7.02596
6.41119
5.19488
3.39835
1.54269
0.365913
0.0178248
0.346
1.11987
2.16433
3.34021
4.4665
5.40014
6.0836
6.52551
6.77685
6.90438
6.96262
6.98674
6.99587
6.99907
7.00015
7.00056
7.00077
7.00098
7.00122
7.00154
7.00193
7.00247
7.00315
7.00406
7.00519
7.00672
7.00864
7.01122
7.01446
7.01882
7.0243
7.03171
7.04109
7.05383
7.06999
7.09202
7.11992
7.15752
7.20493
7.26527
7.33084
7.36438
7.3657
7.20736
6.68638
5.55757
3.77337
1.79866
0.443169
0.0201305
0.34595
1.11975
2.16416
3.3401
4.46661
5.40039
6.08357
6.52564
6.77745
6.90526
6.96367
6.98787
6.99703
7.00025
7.00133
7.00174
7.00196
7.00217
7.0024
7.00272
7.00312
7.00367
7.00435
7.00527
7.00642
7.00798
7.00994
7.01257
7.0159
7.02036
7.02603
7.03369
7.04351
7.05693
7.07422
7.098
7.12869
7.17083
7.22526
7.2981
7.37574
7.44082
7.49272
7.41615
7.01459
5.99882
4.23504
2.11339
0.543226
0.0253126
0.345906
1.11966
2.16405
3.34009
4.46686
5.40103
6.08394
6.52616
6.77851
6.90667
6.96526
6.98956
6.99877
7.00201
7.0031
7.00351
7.00372
7.00393
7.00416
7.00449
7.00489
7.00543
7.00612
7.00705
7.00823
7.00981
7.01181
7.01448
7.01787
7.0224
7.0282
7.03606
7.04627
7.06031
7.07877
7.10433
7.138
7.1847
7.24638
7.33131
7.42385
7.5187
7.63005
7.64763
7.39269
6.45742
4.65525
2.34361
0.583941
0.0197389
0.345875
1.11961
2.16403
3.34022
4.46732
5.40203
6.0848
6.5272
6.78015
6.90869
6.96751
6.99193
7.00119
7.00446
7.00555
7.00597
7.00618
7.00639
7.00663
7.00695
7.00735
7.0079
7.0086
7.00954
7.01073
7.01232
7.01435
7.01703
7.02044
7.02496
7.0308
7.03871
7.0492
7.06374
7.08328
7.11061
7.14728
7.19902
7.26827
7.36722
7.4735
7.60243
7.77578
7.90575
7.8232
7.15672
5.47497
2.97583
0.811374
0.0294797
0.345854
1.1196
2.1641
3.34048
4.46797
5.40333
6.08613
6.52876
6.7823
6.91127
6.97036
6.99493
7.00427
7.00757
7.00868
7.0091
7.00931
7.00952
7.00976
7.01008
7.01049
7.01105
7.01176
7.01271
7.01392
7.01552
7.01756
7.02021
7.02359
7.028
7.03377
7.04159
7.05227
7.06716
7.08771
7.11658
7.15627
7.21253
7.28963
7.40156
7.5237
7.68725
7.92405
8.16392
8.26067
7.94454
6.55223
3.92336
1.18577
0.0461728
0.345846
1.11963
2.16423
3.34084
4.46877
5.40483
6.08784
6.53071
6.78478
6.91419
6.97358
6.99834
7.00777
7.01111
7.01223
7.01266
7.01288
7.01309
7.01333
7.01366
7.01408
7.01465
7.01537
7.01633
7.01755
7.01915
7.02118
7.02376
7.02702
7.03121
7.03678
7.04442
7.05518
7.07033
7.09182
7.1221
7.16473
7.22525
7.31026
7.43405
7.57024
7.77078
8.06388
8.39061
8.66525
8.72315
7.85723
5.37953
1.89835
0.0837545
0.345842
1.11968
2.16439
3.34124
4.46961
5.40638
6.08974
6.53279
6.78724
6.91708
6.9768
7.00175
7.01128
7.01467
7.01581
7.01625
7.01647
7.01669
7.01694
7.01728
7.0177
7.01828
7.01901
7.01998
7.02122
7.02281
7.02479
7.02723
7.03029
7.03417
7.0395
7.04689
7.05769
7.07298
7.09528
7.12663
7.17192
7.23578
7.32822
7.46131
7.61128
7.8464
8.18412
8.57866
9.00073
9.42719
9.23377
7.56934
3.06077
0.331426
0.345846
1.11974
2.16455
3.34162
4.47037
5.40777
6.09154
6.53466
6.78933
6.91953
6.97956
7.0047
7.01432
7.01775
7.01891
7.01936
7.01959
7.01981
7.02007
7.02041
7.02084
7.02143
7.02218
7.02316
7.0244
7.02595
7.02786
7.03013
7.03295
7.03654
7.04163
7.04881
7.05963
7.07503
7.09799
7.13019
7.17765
7.24405
7.34262
7.48225
7.64219
7.90845
8.27618
8.72183
9.25271
9.96742
10.45
10.1357
6.45116
1.34097
0.345848
1.11978
2.16467
3.34189
4.47093
5.40881
6.09291
6.53599
6.79073
6.9212
6.98146
7.00675
7.01645
7.01991
7.02108
7.02154
7.02177
7.022
7.02226
7.02261
7.02305
7.02364
7.0244
7.02538
7.02662
7.02813
7.02995
7.03205
7.03468
7.03805
7.04298
7.05
7.06081
7.07626
7.09965
7.13232
7.18123
7.24912
7.35181
7.49529
7.66177
7.95179
8.33793
8.81589
9.41308
10.294
11.2531
12.2391
12.705
9.17332
0.345851
1.1198
2.16471
3.34199
4.47115
5.40923
6.09351
6.53649
6.79119
6.92177
6.98214
7.00749
7.01723
7.0207
7.02188
7.02234
7.02258
7.02281
7.02307
7.02342
7.02386
7.02446
7.02522
7.0262
7.02743
7.02893
7.0307
7.03274
7.0353
7.03859
7.04346
7.05043
7.06126
7.07674
7.10029
7.13315
7.18256
7.251
7.35509
7.49978
7.66619
7.9716
8.36561
8.85742
9.48167
10.4134
11.5471
13.0634
14.9412
16.8633
0.345848
1.11978
2.16467
3.34189
4.47093
5.40881
6.09291
6.53599
6.79073
6.9212
6.98146
7.00675
7.01645
7.01991
7.02108
7.02154
7.02177
7.022
7.02226
7.02261
7.02305
7.02364
7.0244
7.02538
7.02662
7.02814
7.02995
7.03206
7.0347
7.03806
7.04299
7.05
7.06082
7.07626
7.09965
7.13232
7.18122
7.24911
7.35181
7.49529
7.65567
7.96522
8.35641
8.84361
9.45901
10.3436
11.3741
12.5773
13.2099
10.7713
0.345846
1.11974
2.16455
3.34162
4.47037
5.40777
6.09154
6.53466
6.78933
6.91953
6.97956
7.0047
7.01432
7.01775
7.01891
7.01936
7.01959
7.01981
7.02007
7.02041
7.02084
7.02143
7.02218
7.02316
7.0244
7.02596
7.02786
7.03014
7.03297
7.03656
7.04165
7.04882
7.05963
7.07504
7.09799
7.13019
7.17765
7.24405
7.34262
7.48225
7.63099
7.93279
8.31104
8.77513
9.34434
10.0704
10.6979
10.7483
8.34066
1.69238
0.345842
1.11968
2.16439
3.34124
4.46961
5.40638
6.08974
6.53279
6.78724
6.91708
6.9768
7.00175
7.01128
7.01467
7.01581
7.01625
7.01647
7.01669
7.01694
7.01728
7.0177
7.01828
7.01901
7.01998
7.02122
7.02281
7.02479
7.02725
7.0303
7.03419
7.03952
7.0469
7.05769
7.07298
7.09528
7.12662
7.17191
7.23577
7.32822
7.46131
7.5951
7.87985
8.23378
8.65629
9.1381
9.581
9.56209
8.20281
4.28055
0.383284
0.345846
1.11963
2.16423
3.34084
4.46877
5.40483
6.08784
6.53071
6.78478
6.91419
6.97358
6.99834
7.00777
7.01111
7.01223
7.01266
7.01288
7.01309
7.01333
7.01366
7.01408
7.01465
7.01537
7.01633
7.01755
7.01916
7.02118
7.02377
7.02703
7.03122
7.03679
7.04443
7.05519
7.07033
7.09182
7.1221
7.16473
7.22525
7.31026
7.43405
7.55123
7.80975
8.12756
8.48991
8.84244
8.90689
8.19767
5.85298
2.16895
0.101137
0.345854
1.1196
2.1641
3.34048
4.46797
5.40333
6.08613
6.52876
6.7823
6.91127
6.97036
6.99493
7.00427
7.00757
7.00868
7.0091
7.00931
7.00952
7.00976
7.01008
7.01049
7.01105
7.01176
7.01271
7.01392
7.01552
7.01756
7.02022
7.02359
7.028
7.03377
7.04159
7.05227
7.06716
7.08771
7.11657
7.15627
7.21253
7.28963
7.40155
7.50161
7.72966
7.99574
8.28186
8.47207
8.14046
6.86198
4.22898
1.31762
0.052427
0.345875
1.11961
2.16403
3.34022
4.46732
5.40203
6.0848
6.5272
6.78015
6.90869
6.96751
6.99193
7.00119
7.00446
7.00555
7.00597
7.00618
7.00639
7.00663
7.00695
7.00735
7.0079
7.0086
7.00954
7.01073
7.01232
7.01435
7.01703
7.02044
7.02496
7.0308
7.03871
7.0492
7.06374
7.08328
7.11061
7.14728
7.19902
7.26826
7.36721
7.45181
7.64426
7.85007
8.03693
8.04488
7.34772
5.71839
3.17525
0.885416
0.0326419
0.345906
1.11966
2.16405
3.34009
4.46686
5.40103
6.08394
6.52616
6.77851
6.90667
6.96526
6.98956
6.99877
7.00201
7.0031
7.00351
7.00372
7.00393
7.00416
7.00449
7.00489
7.00543
7.00612
7.00705
7.00823
7.00981
7.01181
7.01448
7.01787
7.0224
7.02821
7.03606
7.04627
7.06031
7.07877
7.10432
7.138
7.1847
7.24637
7.33131
7.40083
7.55993
7.70219
7.77465
7.60388
6.61837
4.83795
2.47853
0.631798
0.0218817
0.34595
1.11975
2.16416
3.3401
4.46661
5.40039
6.08357
6.52564
6.77745
6.90526
6.96367
6.98787
6.99703
7.00025
7.00133
7.00174
7.00196
7.00217
7.0024
7.00272
7.00312
7.00367
7.00435
7.00527
7.00642
7.00798
7.00994
7.01257
7.0159
7.02036
7.02603
7.03369
7.04351
7.05693
7.07421
7.098
7.12869
7.17083
7.22526
7.29809
7.35657
7.47828
7.56051
7.53091
7.20041
6.25569
4.52048
2.31908
0.614579
0.0293075
0.346
1.11987
2.16433
3.34021
4.4665
5.40014
6.0836
6.52551
6.77685
6.90438
6.96262
6.98674
6.99587
6.99907
7.00015
7.00056
7.00077
7.00098
7.00122
7.00154
7.00193
7.00247
7.00315
7.00406
7.00519
7.00672
7.00864
7.01122
7.01446
7.01882
7.0243
7.03171
7.04109
7.05383
7.06999
7.09202
7.11992
7.15751
7.20493
7.26527
7.31005
7.40137
7.42668
7.30794
6.84189
5.7656
3.99164
1.94675
0.48952
0.0225007
0.346051
1.12001
2.16452
3.34035
4.46642
5.40017
6.08392
6.52561
6.77655
6.9038
6.96189
6.98594
6.99503
6.99822
6.9993
6.9997
6.99992
7.00012
7.00036
7.00067
7.00107
7.0016
7.00226
7.00315
7.00426
7.00575
7.00762
7.01012
7.01324
7.01744
7.02269
7.02975
7.0386
7.05055
7.06548
7.08572
7.1107
7.14451
7.1839
7.23718
7.27136
7.3287
7.30841
7.11333
6.54385
5.37191
3.58441
1.67217
0.404805
0.0183935
0.346082
1.12008
2.16462
3.34034
4.46609
5.40016
6.08422
6.52559
6.77611
6.90309
6.96102
6.98499
6.99405
6.99723
6.99829
6.99869
6.9989
6.9991
6.99933
6.99963
7.00002
7.00053
7.00117
7.00204
7.00311
7.00455
7.00635
7.00875
7.01175
7.01576
7.02076
7.02746
7.03578
7.04697
7.06082
7.07956
7.10234
7.13339
7.1676
7.20946
7.25023
7.24462
7.1376
6.78686
5.99222
4.58994
2.7301
1.04654
0.177086
0.00581273
0.346047
1.11995
2.16433
3.33973
4.4649
5.39938
6.08372
6.52454
6.77451
6.90114
6.95889
6.98276
6.99178
6.99493
6.99598
6.99636
6.99656
6.99674
6.99694
6.99722
6.99757
6.99805
6.99865
6.99945
7.00046
7.00181
7.0035
7.00574
7.00856
7.01229
7.01695
7.02314
7.03084
7.04103
7.05366
7.0703
7.0908
7.11709
7.14809
7.18021
7.20319
7.17564
7.03532
6.63643
5.78491
4.34933
2.5255
0.942504
0.156861
0.00541184
0.34581
1.11916
2.16285
3.33732
4.46122
5.39585
6.08009
6.51979
6.76889
6.895
6.95248
6.97622
6.98516
6.98826
6.98927
6.98961
6.98976
6.98989
6.99004
6.99024
6.99052
6.9909
6.99139
6.99207
6.99292
6.99409
6.99556
6.99753
7.00002
7.00333
7.00747
7.01297
7.0198
7.0288
7.03991
7.05434
7.07195
7.09374
7.11863
7.14121
7.15151
7.10931
6.94144
6.50649
5.61868
4.17074
2.38522
0.877251
0.144781
0.00499583
0.345021
1.11656
2.15808
3.32998
4.45092
5.38443
6.06717
6.50445
6.75192
6.87709
6.93406
6.95752
6.96631
6.9693
6.97021
6.97045
6.97049
6.97049
6.9705
6.97054
6.97062
6.97078
6.97101
6.97139
6.9719
6.97266
6.97366
6.97507
6.9769
6.97942
6.98262
6.98694
6.99239
6.99959
7.0086
7.02018
7.03449
7.05172
7.07113
7.08667
7.0834
7.02687
6.83729
6.37479
5.46171
4.01081
2.26521
0.823623
0.135034
0.00465404
0.342851
1.10947
2.14513
3.3103
4.42431
5.35269
6.03003
6.46215
6.70629
6.82952
6.88545
6.90836
6.91682
6.91958
6.92027
6.92028
6.92008
6.91979
6.91946
6.91913
6.91878
6.91845
6.91812
6.91785
6.91762
6.91753
6.91754
6.91782
6.91832
6.9193
6.9207
6.9229
6.92585
6.93006
6.9355
6.94278
6.95189
6.9628
6.97445
6.98039
6.96665
6.89623
6.69013
6.21145
5.29079
3.85644
2.16023
0.779908
0.127379
0.00438721
0.337649
1.09243
2.11381
3.2625
4.36066
5.27393
5.93718
6.35855
6.59584
6.71515
6.76898
6.7908
6.79861
6.8009
6.80113
6.80075
6.80003
6.79917
6.79818
6.79711
6.7959
6.79462
6.79318
6.79167
6.78999
6.78828
6.78641
6.78458
6.78262
6.78083
6.77899
6.77753
6.77619
6.77553
6.7753
6.77605
6.77758
6.77988
6.78132
6.77606
6.75013
6.66642
6.4485
5.96485
5.05614
3.66393
2.0398
0.732552
0.119288
0.00410641
0.326729
1.05605
2.04568
3.15702
4.21938
5.09814
5.73092
6.13095
6.35506
6.46701
6.517
6.53683
6.5435
6.54493
6.5445
6.54335
6.54174
6.53991
6.53779
6.53546
6.5328
6.52989
6.52656
6.52296
6.51886
6.51445
6.50945
6.50415
6.49815
6.49188
6.48484
6.4776
6.46958
6.46149
6.45266
6.44393
6.43453
6.42489
6.41289
6.39401
6.35418
6.25949
6.03821
5.56897
4.70611
3.40097
1.88945
0.677577
0.110253
0.00379516
0.306974
0.9872
1.91246
2.94916
3.93483
4.74351
5.32105
5.68377
5.88545
5.9852
6.02898
6.04571
6.05063
6.05084
6.04949
6.0472
6.04433
6.04111
6.03739
6.03329
6.02856
6.02337
6.01741
6.01089
6.0034
5.99528
5.98597
5.97594
5.96448
5.95221
5.93828
5.9235
5.90682
5.88931
5.86976
5.84944
5.82697
5.80347
5.77636
5.74279
5.68966
5.58845
5.37577
4.94626
4.17323
3.01583
1.67819
0.603036
0.0982283
0.00338235
0.276312
0.871606
1.67975
2.57974
3.42787
4.1176
4.60706
4.91241
5.08068
5.16281
5.19796
5.21061
5.2133
5.21241
5.20985
5.20637
5.20218
5.19751
5.1921
5.18615
5.17927
5.17172
5.16301
5.15349
5.14255
5.13064
5.11698
5.10221
5.08531
5.06716
5.04651
5.02448
4.99961
4.97332
4.94393
4.9132
4.87926
4.84391
4.80442
4.75974
4.69901
4.60093
4.41488
4.05773
3.42724
2.48762
1.39474
0.505155
0.0826503
0.00284891
0.234759
0.700672
1.32667
2.01595
2.66121
3.18405
3.55386
3.78341
3.90882
3.96912
3.99412
4.00234
4.00304
4.00136
3.99804
3.99392
3.98904
3.98364
3.97738
3.9705
3.96254
3.95382
3.94377
3.93279
3.92018
3.90648
3.89078
3.87382
3.85447
3.8337
3.81015
3.78507
3.75684
3.72708
3.69395
3.65942
3.62152
3.58238
3.53952
3.49327
3.43587
3.35381
3.21205
2.95346
2.5046
1.83473
1.0435
0.383744
0.0633443
0.00218785
0.184821
0.485387
0.883234
1.31936
1.72862
2.06144
2.29715
2.44309
2.52222
2.55971
2.57472
2.57905
2.57879
2.57693
2.57388
2.57025
2.56598
2.56126
2.5558
2.54979
2.54286
2.53528
2.52655
2.51704
2.50612
2.49429
2.48076
2.46618
2.4496
2.43186
2.4118
2.39053
2.3667
2.34168
2.31399
2.28527
2.25397
2.2219
2.18729
2.15099
2.10841
2.05265
1.96372
1.80926
1.54518
1.14851
0.668365
0.252411
0.0423824
0.00146953
0.132603
0.267021
0.451967
0.660858
0.860661
1.02482
1.1415
1.21363
1.25248
1.27065
1.27769
1.27944
1.27904
1.27776
1.27584
1.27361
1.271
1.26811
1.26478
1.26112
1.25689
1.25228
1.24697
1.2412
1.23458
1.22743
1.21926
1.21049
1.20053
1.18992
1.17795
1.16531
1.1512
1.13644
1.12019
1.10341
1.08524
1.06673
1.04695
1.02657
1.00347
0.974967
0.932245
0.861234
0.74171
0.561197
0.336823
0.132689
0.0230303
0.000804953
0.0847286
0.102429
0.152092
0.217657
0.282797
0.336858
0.375347
0.399089
0.411808
0.417697
0.419925
0.420408
0.420212
0.419708
0.418983
0.418146
0.417169
0.416092
0.414847
0.413481
0.411906
0.410188
0.408213
0.406068
0.403613
0.400962
0.397941
0.3947
0.39103
0.387123
0.382732
0.378102
0.372951
0.367579
0.361683
0.355615
0.349069
0.34243
0.335376
0.328182
0.32019
0.310674
0.296996
0.275013
0.238575
0.183569
0.113994
0.0477002
0.00886984
0.000316616
0.041368
0.0205499
0.0245072
0.0338755
0.0439835
0.0524364
0.0584493
0.0621508
0.0641273
0.0650374
0.0653764
0.0654433
0.0654066
0.0653198
0.0651976
0.0650573
0.0648935
0.0647132
0.0645046
0.0642762
0.0640126
0.0637256
0.0633954
0.0630377
0.0626278
0.0621864
0.061683
0.0611445
0.0605343
0.0598867
0.0591588
0.0583935
0.0575424
0.0566576
0.0556871
0.0546918
0.0536191
0.0525352
0.0513861
0.0502217
0.0489397
0.0474424
0.0453377
0.0420234
0.0365892
0.028422
0.018063
0.00800868
0.00168919
6.56514e-05
0.00921498
0.000977034
0.000856959
0.00115536
0.00150155
0.00179076
0.00199631
0.0021228
0.00219033
0.00222141
0.00223301
0.0022353
0.0022341
0.00223116
0.00222704
0.00222229
0.00221677
0.00221066
0.00220363
0.00219589
0.002187
0.00217728
0.00216614
0.00215402
0.00214019
0.00212523
0.00210825
0.00208999
0.00206939
0.00204743
0.00202285
0.00199689
0.00196814
0.00193811
0.00190531
0.00187151
0.00183523
0.00179841
0.00175952
0.00171995
0.00167652
0.00162564
0.00155421
0.00144152
0.00125672
0.000978691
0.00062569
0.000282204
6.40478e-05
4.27593e-06
0.536835
0.143409
0.0822433
0.0482489
0.027558
0.0154413
0.00856818
0.00473332
0.00260973
0.00143763
0.000791622
0.000435803
0.000239881
0.000132022
7.2652e-05
3.99765e-05
2.19986e-05
1.21227e-05
6.76128e-06
4.1673e-06
15.6665
10.3459
5.99523
3.3491
1.85293
1.02216
0.563265
0.310245
0.170842
0.0940638
0.0517844
0.0285056
0.0156898
0.00863488
0.00475167
0.00261447
0.00143835
0.000791181
0.000435073
0.000239473
4.79165
2.1071
1.21149
0.699263
0.394878
0.219964
0.121728
0.0671679
0.0370148
0.0203861
0.0112244
0.00617898
0.00340104
0.00187178
0.00103002
0.000566756
0.000311862
0.000171802
9.55808e-05
5.73388e-05
3.95965e-06
6.00612e-05
0.000287888
0.000723681
0.00129871
0.00188965
0.00238422
0.00272541
0.00291539
0.00299075
0.00299295
0.0029644
0.00291746
0.00286463
0.00281181
0.00276128
0.00271393
0.00266994
0.00262944
0.00259227
0.0025584
0.00252755
0.00249968
0.00247445
0.00245181
0.00243138
0.00241317
0.00239676
0.00238223
0.00236912
0.00235761
0.00234718
0.00233811
0.00232984
0.00232273
0.00231618
0.00231063
0.00230545
0.00230113
0.00229703
0.00229366
0.00229045
0.00228778
0.0022853
0.00228311
0.00228128
0.00227937
0.00227813
0.00227636
0.00227568
0.00227398
0.00227384
0.00227231
0.00227248
0.00227107
0.00227139
0.00227013
0.0022705
0.00226941
0.00226977
0.00226887
0.00226918
0.00226844
0.00226871
0.00226811
0.00226833
0.00226786
0.00226802
0.00226766
0.00226778
0.0022675
0.0022676
0.00226737
0.00226745
0.00226728
0.00226733
0.0022672
0.00226724
0.00226714
0.00226717
0.0022671
0.00226712
0.00226706
0.00226708
0.00226703
0.00226704
0.00226701
0.00226702
0.00226699
0.002267
0.00226698
0.00226698
0.00226696
0.00226697
0.00226695
0.00226696
0.00226694
0.00226695
0.00226694
0.00226694
5.991e-05
0.00156189
0.00809414
0.0207494
0.0375288
0.0548289
0.0693502
0.0793996
0.0850209
0.0872764
0.087378
0.0865678
0.0852179
0.0836916
0.0821634
0.0807005
0.0793294
0.0780556
0.0768827
0.0758059
0.0748248
0.0739312
0.0731239
0.0723926
0.0717367
0.0711446
0.070617
0.0701414
0.0697204
0.0693405
0.0690068
0.0687046
0.0684416
0.0682019
0.0679958
0.0678059
0.0676451
0.0674947
0.0673696
0.0672509
0.0671532
0.06706
0.0669827
0.0669108
0.0668474
0.0667941
0.0667389
0.0667027
0.0666515
0.0666317
0.0665826
0.0665785
0.066534
0.0665392
0.066498
0.0665076
0.0664704
0.0664817
0.0664495
0.0664606
0.0664336
0.0664435
0.0664215
0.0664297
0.066412
0.0664186
0.0664047
0.0664099
0.0663989
0.0664029
0.0663944
0.0663975
0.0663909
0.0663932
0.0663882
0.0663899
0.066386
0.0663873
0.0663843
0.0663853
0.066383
0.0663837
0.0663819
0.0663824
0.0663811
0.0663815
0.0663804
0.0663807
0.0663799
0.0663801
0.0663795
0.0663796
0.0663792
0.0663793
0.0663789
0.066379
0.0663786
0.0663787
0.0663784
0.0663786
0.000264426
0.00747074
0.0440059
0.1207
0.225724
0.335968
0.429851
0.495815
0.533527
0.549473
0.551364
0.547049
0.539262
0.530226
0.521101
0.512337
0.50411
0.496461
0.489411
0.482934
0.477029
0.471647
0.466782
0.462374
0.458417
0.454844
0.451658
0.448785
0.446241
0.443946
0.441928
0.440101
0.43851
0.43706
0.435813
0.434664
0.43369
0.432781
0.432023
0.431305
0.430714
0.43015
0.429682
0.429246
0.428864
0.428539
0.428207
0.427986
0.427678
0.427555
0.42726
0.427232
0.426966
0.426993
0.426748
0.426802
0.426582
0.426645
0.426456
0.426518
0.42636
0.426415
0.426286
0.426331
0.426228
0.426264
0.426183
0.426211
0.426148
0.42617
0.42612
0.426137
0.426098
0.426111
0.426081
0.426091
0.426068
0.426075
0.426057
0.426063
0.426049
0.426053
0.426043
0.426046
0.426038
0.42604
0.426034
0.426035
0.426031
0.426032
0.426028
0.426029
0.426026
0.426026
0.426024
0.426025
0.426023
0.426023
0.426021
0.426022
0.000586104
0.0168737
0.10592
0.309898
0.607
0.932119
1.21802
1.42518
1.54845
1.60515
1.61836
1.61031
1.59191
1.56904
1.54542
1.52257
1.50104
1.48098
1.46247
1.44543
1.42988
1.41569
1.40285
1.3912
1.38073
1.37127
1.36282
1.35521
1.34845
1.34236
1.33699
1.33214
1.32791
1.32405
1.32073
1.31767
1.31508
1.31266
1.31064
1.30873
1.30715
1.30564
1.3044
1.30323
1.30222
1.30135
1.30047
1.29986
1.29905
1.29871
1.29793
1.29786
1.29715
1.29722
1.29657
1.29671
1.29613
1.2963
1.2958
1.29596
1.29554
1.29568
1.29534
1.29546
1.29519
1.29528
1.29507
1.29514
1.29497
1.29503
1.2949
1.29494
1.29484
1.29487
1.29479
1.29482
1.29476
1.29477
1.29473
1.29474
1.29471
1.29472
1.29469
1.2947
1.29468
1.29468
1.29467
1.29467
1.29466
1.29466
1.29465
1.29465
1.29464
1.29465
1.29464
1.29464
1.29464
1.29464
1.29463
1.29463
0.000909122
0.0263411
0.170043
0.518149
1.05465
1.67078
2.23531
2.66072
2.92623
3.05947
3.1044
3.10102
3.07741
3.04323
3.00641
2.97027
2.93606
2.90412
2.87458
2.84737
2.82249
2.79976
2.77916
2.76045
2.74362
2.7284
2.7148
2.70252
2.69162
2.68179
2.67312
2.66528
2.65843
2.65219
2.64681
2.64187
2.63766
2.63374
2.63047
2.62737
2.62482
2.62237
2.62036
2.61846
2.61683
2.6154
2.61399
2.61299
2.61168
2.61112
2.60985
2.60973
2.60858
2.60871
2.60764
2.60788
2.60693
2.6072
2.60639
2.60664
2.60597
2.60619
2.60565
2.60583
2.6054
2.60554
2.6052
2.60531
2.60505
2.60513
2.60493
2.60499
2.60483
2.60488
2.60476
2.60479
2.6047
2.60473
2.60466
2.60467
2.60462
2.60463
2.60459
2.6046
2.60457
2.60458
2.60455
2.60456
2.60454
2.60454
2.60453
2.60453
2.60452
2.60452
2.60451
2.60451
2.6045
2.6045
2.6045
2.6045
0.00114538
0.0332791
0.217775
0.679456
1.42039
2.30661
3.14972
3.80859
4.23789
4.46908
4.56428
4.58022
4.56249
4.52792
4.48748
4.44687
4.40819
4.37204
4.33862
4.30785
4.27972
4.25402
4.23073
4.20958
4.19055
4.17334
4.15795
4.14406
4.13172
4.12059
4.11078
4.10189
4.09413
4.08707
4.08097
4.07537
4.0706
4.06615
4.06245
4.05892
4.05604
4.05325
4.05099
4.04882
4.04699
4.04534
4.04376
4.0426
4.04112
4.04048
4.03902
4.03891
4.0376
4.03776
4.03654
4.03682
4.03573
4.03604
4.03512
4.03541
4.03465
4.0349
4.03429
4.03449
4.034
4.03416
4.03378
4.0339
4.0336
4.03369
4.03347
4.03353
4.03336
4.03341
4.03327
4.03331
4.03321
4.03323
4.03316
4.03318
4.03311
4.03313
4.03308
4.03309
4.03306
4.03306
4.03304
4.03304
4.03302
4.03302
4.03301
4.03301
4.033
4.033
4.03299
4.03299
4.03298
4.03298
4.03298
4.03298
0.00126939
0.0369223
0.24353
0.770802
1.64079
2.71455
3.76842
4.61702
5.18887
5.5128
5.66182
5.70704
5.7017
5.67617
5.64121
5.60473
5.56978
5.53723
5.50729
5.47988
5.45493
5.43224
5.41174
5.39318
5.37653
5.36151
5.3481
5.33602
5.3253
5.31565
5.30714
5.29945
5.29274
5.28664
5.28138
5.27654
5.27243
5.26859
5.26541
5.26236
5.25989
5.25748
5.25555
5.25366
5.25211
5.25067
5.24933
5.24832
5.24705
5.24649
5.24521
5.24515
5.244
5.24417
5.24309
5.24335
5.24241
5.24268
5.24188
5.24213
5.24148
5.24168
5.24117
5.24133
5.24092
5.24105
5.24073
5.24083
5.24058
5.24065
5.24046
5.24051
5.24036
5.24041
5.24029
5.24032
5.24023
5.24026
5.24019
5.24021
5.24015
5.24017
5.24013
5.24014
5.24011
5.24011
5.24009
5.24009
5.24007
5.24008
5.24006
5.24006
5.24005
5.24006
5.24005
5.24005
5.24004
5.24004
5.24003
5.24004
0.00130674
0.0380269
0.251968
0.804388
1.73359
2.90882
4.09225
5.06922
5.7451
6.14139
6.33576
6.40821
6.41699
6.40191
6.37517
6.34567
6.31732
6.29121
6.26753
6.24614
6.22693
6.20966
6.19422
6.18038
6.16806
6.15703
6.14724
6.13848
6.13075
6.12382
6.11773
6.11225
6.10748
6.10316
6.09944
6.09602
6.09314
6.09044
6.08821
6.08607
6.08435
6.08265
6.08132
6.07999
6.07892
6.0779
6.07699
6.07626
6.07539
6.075
6.0741
6.0741
6.07328
6.07343
6.07264
6.07284
6.07216
6.07236
6.07179
6.07196
6.07151
6.07165
6.07129
6.0714
6.07112
6.07121
6.07099
6.07105
6.07088
6.07093
6.0708
6.07084
6.07073
6.07076
6.07068
6.0707
6.07064
6.07066
6.07061
6.07062
6.07059
6.0706
6.07057
6.07057
6.07055
6.07056
6.07054
6.07054
6.07053
6.07053
6.07052
6.07052
6.07052
6.07052
6.07051
6.07051
6.07051
6.07051
6.0705
6.07051
0.00128735
0.0374583
0.24931
0.80198
1.74502
2.95849
4.20645
5.26391
6.0125
6.4624
6.69147
6.78461
6.80554
6.79736
6.77702
6.753
6.72994
6.70913
6.69073
6.67452
6.6603
6.64779
6.63684
6.62721
6.61877
6.61134
6.60484
6.59909
6.59408
6.58963
6.58576
6.58231
6.57933
6.57664
6.57435
6.57225
6.57049
6.56885
6.5675
6.56621
6.56518
6.56415
6.56337
6.56256
6.56194
6.56132
6.5608
6.56037
6.55987
6.55966
6.55912
6.55916
6.55864
6.55874
6.55824
6.55836
6.55793
6.55804
6.5577
6.55779
6.55752
6.5576
6.55739
6.55745
6.55729
6.55734
6.55721
6.55725
6.55715
6.55717
6.5571
6.55712