/*--------------------------------*- C++ -*----------------------------------*\
| =========                 |                                                 |
| \\      /  F ield         | foam-extend: Open Source CFD                    |
|  \\    /   O peration     | Version:     4.0                                |
|   \\  /    A nd           | Web:         http://www.foam-extend.org         |
|    \\/     M anipulation  |                                                 |
\*---------------------------------------------------------------------------*/
FoamFile
{
    version     2.0;
    format      ascii;
    class       volScalarField;
    location    "6e-05";
    object      nut;
}
// * * * * * * * * * * * * * * * * * * * * * * * * * * * * * * * * * * * * * //

dimensions      [0 2 -1 0 0 0 0];

internalField   nonuniform List<scalar> 
28770
(
4.91217e-10
5.20822e-11
4.56814e-11
6.1588e-11
8.0042e-11
9.54586e-11
1.06416e-10
1.13159e-10
1.16758e-10
1.18415e-10
1.19034e-10
1.19156e-10
1.19091e-10
1.18935e-10
1.18716e-10
1.18462e-10
1.18168e-10
1.17842e-10
1.17467e-10
1.17055e-10
1.16581e-10
1.16063e-10
1.15469e-10
1.14823e-10
1.14086e-10
1.13288e-10
1.12383e-10
1.1141e-10
1.10312e-10
1.09141e-10
1.07831e-10
1.06447e-10
1.04914e-10
1.03313e-10
1.01565e-10
9.97633e-11
9.78294e-11
9.58667e-11
9.37934e-11
9.16843e-11
8.9369e-11
8.66567e-11
8.28491e-11
7.68422e-11
6.69913e-11
5.21704e-11
3.33532e-11
1.50432e-11
3.41412e-12
2.27929e-13
1.68733e-08
6.52529e-09
7.59867e-09
1.0472e-08
1.35894e-08
1.61985e-08
1.80544e-08
1.91965e-08
1.98054e-08
2.00849e-08
2.01875e-08
2.02062e-08
2.01921e-08
2.01627e-08
2.01214e-08
2.00748e-08
2.00197e-08
1.99598e-08
1.98897e-08
1.98139e-08
1.97255e-08
1.96304e-08
1.95196e-08
1.94013e-08
1.92641e-08
1.91184e-08
1.89502e-08
1.87729e-08
1.85695e-08
1.83568e-08
1.81148e-08
1.78643e-08
1.75824e-08
1.72938e-08
1.69738e-08
1.66504e-08
1.62985e-08
1.59478e-08
1.55732e-08
1.5199e-08
1.47863e-08
1.43138e-08
1.36571e-08
1.26421e-08
1.09912e-08
8.52427e-09
5.39311e-09
2.32096e-09
3.76731e-10
3.64985e-12
1.67827e-07
1.092e-07
1.43814e-07
1.99917e-07
2.57652e-07
3.0611e-07
3.40759e-07
3.62165e-07
3.73623e-07
3.78908e-07
3.8087e-07
3.8125e-07
3.81003e-07
3.80472e-07
3.79725e-07
3.78872e-07
3.77871e-07
3.76776e-07
3.75502e-07
3.74116e-07
3.72506e-07
3.70765e-07
3.68749e-07
3.66581e-07
3.6408e-07
3.61407e-07
3.58338e-07
3.55081e-07
3.51365e-07
3.47452e-07
3.43024e-07
3.38407e-07
3.33238e-07
3.27909e-07
3.22026e-07
3.16041e-07
3.09554e-07
3.03049e-07
2.96117e-07
2.8914e-07
2.81425e-07
2.72457e-07
2.59819e-07
2.39939e-07
2.072e-07
1.57498e-07
9.31707e-08
3.14775e-08
2.74178e-09
1.76022e-11
1.01043e-06
7.8006e-07
1.01025e-06
1.34611e-06
1.69297e-06
1.98815e-06
2.20184e-06
2.33528e-06
2.40739e-06
2.44097e-06
2.4536e-06
2.45622e-06
2.45465e-06
2.45135e-06
2.44668e-06
2.44133e-06
2.43504e-06
2.42815e-06
2.42013e-06
2.41141e-06
2.40128e-06
2.39031e-06
2.37763e-06
2.36396e-06
2.3482e-06
2.33134e-06
2.31198e-06
2.29141e-06
2.26794e-06
2.24319e-06
2.21519e-06
2.18594e-06
2.15319e-06
2.11936e-06
2.08202e-06
2.04396e-06
2.00267e-06
1.96119e-06
1.91691e-06
1.87208e-06
1.82198e-06
1.76232e-06
1.67556e-06
1.53441e-06
1.29575e-06
9.27804e-07
4.70234e-07
1.16041e-07
7.44078e-09
4.47513e-11
4.32269e-06
3.50737e-06
4.22918e-06
5.28688e-06
6.38673e-06
7.33445e-06
8.03107e-06
8.47309e-06
8.71584e-06
8.83064e-06
8.87453e-06
8.88418e-06
8.8784e-06
8.86705e-06
8.85083e-06
8.83211e-06
8.81013e-06
8.786e-06
8.75795e-06
8.72735e-06
8.6919e-06
8.6534e-06
8.60893e-06
8.56091e-06
8.50561e-06
8.44627e-06
8.37824e-06
8.30573e-06
8.22307e-06
8.13569e-06
8.03683e-06
7.93331e-06
7.81739e-06
7.69735e-06
7.56474e-06
7.42926e-06
7.28213e-06
7.13384e-06
6.97495e-06
6.81238e-06
6.62655e-06
6.39464e-06
6.03773e-06
5.42781e-06
4.38128e-06
2.83759e-06
1.19874e-06
2.39555e-07
1.37883e-08
8.16987e-11
1.32681e-05
1.13151e-05
1.27949e-05
1.49846e-05
1.72695e-05
1.92509e-05
2.07247e-05
2.16753e-05
2.22072e-05
2.24636e-05
2.25634e-05
2.25862e-05
2.25716e-05
2.25446e-05
2.25063e-05
2.24617e-05
2.24093e-05
2.23517e-05
2.22847e-05
2.22115e-05
2.21268e-05
2.20345e-05
2.1928e-05
2.18127e-05
2.168e-05
2.15371e-05
2.13734e-05
2.11983e-05
2.09986e-05
2.07869e-05
2.05471e-05
2.02952e-05
2.00127e-05
1.97191e-05
1.93942e-05
1.90609e-05
1.86981e-05
1.83304e-05
1.79335e-05
1.7519e-05
1.70253e-05
1.636e-05
1.52561e-05
1.32937e-05
1.00311e-05
5.76736e-06
2.09564e-06
3.73778e-07
2.06428e-08
1.21634e-10
2.90481e-05
2.69957e-05
2.96138e-05
3.31012e-05
3.65496e-05
3.95156e-05
4.17279e-05
4.31708e-05
4.39921e-05
4.43961e-05
4.45564e-05
4.45934e-05
4.45692e-05
4.45215e-05
4.44568e-05
4.43808e-05
4.42913e-05
4.41923e-05
4.40775e-05
4.39516e-05
4.38058e-05
4.36466e-05
4.34628e-05
4.3263e-05
4.3033e-05
4.27844e-05
4.24991e-05
4.21927e-05
4.18427e-05
4.14694e-05
4.10459e-05
4.05982e-05
4.00946e-05
3.95679e-05
3.89824e-05
3.83777e-05
3.77155e-05
3.70378e-05
3.62951e-05
3.54905e-05
3.4463e-05
3.29254e-05
3.01691e-05
2.5211e-05
1.75763e-05
9.04236e-06
2.9603e-06
4.97485e-07
2.6962e-08
1.58385e-10
4.67637e-05
4.79613e-05
5.24888e-05
5.74875e-05
6.18753e-05
6.53421e-05
6.78603e-05
6.94951e-05
7.04344e-05
7.09053e-05
7.10974e-05
7.11447e-05
7.11189e-05
7.10601e-05
7.09837e-05
7.08928e-05
7.07852e-05
7.06658e-05
7.05272e-05
7.03746e-05
7.01978e-05
7.0004e-05
6.978e-05
6.95355e-05
6.92533e-05
6.89468e-05
6.85941e-05
6.82129e-05
6.77758e-05
6.73065e-05
6.67711e-05
6.62007e-05
6.55547e-05
6.48732e-05
6.41091e-05
6.33121e-05
6.24292e-05
6.15109e-05
6.04749e-05
5.92792e-05
5.75791e-05
5.46884e-05
4.91347e-05
3.92521e-05
2.53849e-05
1.19726e-05
3.67013e-06
5.97422e-07
3.20667e-08
1.88042e-10
6.00411e-05
6.62727e-05
7.33418e-05
7.98568e-05
8.52513e-05
8.89663e-05
9.14432e-05
9.29944e-05
9.38802e-05
9.43312e-05
9.45237e-05
9.45795e-05
9.45654e-05
9.45191e-05
9.4455e-05
9.43798e-05
9.42898e-05
9.41894e-05
9.40726e-05
9.39437e-05
9.37942e-05
9.36297e-05
9.34391e-05
9.32303e-05
9.29886e-05
9.27247e-05
9.24198e-05
9.20885e-05
9.17065e-05
9.12936e-05
9.08191e-05
9.03098e-05
8.97275e-05
8.91076e-05
8.84045e-05
8.76628e-05
8.68276e-05
8.59378e-05
8.48831e-05
8.35306e-05
8.12962e-05
7.69272e-05
6.80115e-05
5.23689e-05
3.202e-05
1.42708e-05
4.21419e-06
6.74752e-07
3.6031e-08
2.10993e-10
6.74002e-05
7.74493e-05
8.66199e-05
9.43575e-05
0.000100462
0.000104541
0.000106973
0.000108409
0.000109213
0.000109626
0.000109812
0.000109878
0.000109883
0.00010986
0.000109822
0.000109777
0.000109722
0.00010966
0.000109589
0.000109509
0.000109417
0.000109316
0.000109198
0.000109069
0.000108919
0.000108755
0.000108565
0.000108358
0.000108118
0.000107858
0.000107558
0.000107234
0.000106861
0.000106462
0.000106005
0.000105518
0.00010496
0.000104346
0.000103551
0.000102341
9.99209e-05
9.44915e-05
8.2798e-05
6.23495e-05
3.68812e-05
1.59293e-05
4.61323e-06
7.32604e-07
3.90183e-08
2.28297e-10
7.07298e-05
8.27596e-05
9.3117e-05
0.000101596
0.000108099
0.000112437
0.000114889
0.000116273
0.000117034
0.000117427
0.000117612
0.000117687
0.000117707
0.000117703
0.000117687
0.000117666
0.00011764
0.000117611
0.000117577
0.000117539
0.000117495
0.000117447
0.000117391
0.00011733
0.000117259
0.000117182
0.000117093
0.000116996
0.000116884
0.000116764
0.000116625
0.000116477
0.000116307
0.000116127
0.000115919
0.000115702
0.000115446
0.000115148
0.000114691
0.000113769
0.000111462
0.000105644
9.24772e-05
6.91565e-05
4.04067e-05
1.72368e-05
4.95393e-06
7.84446e-07
4.17313e-08
2.43907e-10
7.20425e-05
8.49009e-05
9.57835e-05
0.000104612
0.00011131
0.000115774
0.000118261
0.000119623
0.000120365
0.000120751
0.000120937
0.000121017
0.000121047
0.000121053
0.00012105
0.000121042
0.000121032
0.000121021
0.000121008
0.000120993
0.000120977
0.000120959
0.000120939
0.000120917
0.000120892
0.000120866
0.000120836
0.000120805
0.000120769
0.000120734
0.000120694
0.000120656
0.000120613
0.000120575
0.000120533
0.000120498
0.000120453
0.000120387
0.000120194
0.000119553
0.000117491
0.000111782
9.82606e-05
7.37209e-05
4.30963e-05
1.83481e-05
5.26325e-06
8.32937e-07
4.42966e-08
2.58742e-10
7.25093e-05
8.56704e-05
9.67521e-05
0.000105719
0.000112493
0.000117028
0.000119541
0.000120886
0.000121617
0.000121998
0.000122183
0.000122266
0.000122299
0.000122311
0.000122313
0.000122311
0.000122309
0.000122305
0.000122302
0.000122298
0.000122294
0.00012229
0.000122286
0.000122282
0.000122278
0.000122275
0.000122273
0.000122273
0.000122274
0.00012228
0.000122288
0.000122304
0.000122325
0.00012236
0.000122404
0.000122467
0.00012254
0.000122611
0.000122587
0.00012216
0.000120439
0.000115132
0.000102049
7.74376e-05
4.57614e-05
1.96132e-05
5.64487e-06
8.95195e-07
4.76192e-08
2.77744e-10
7.26619e-05
8.59232e-05
9.70729e-05
0.000106089
0.000112891
0.000117471
0.000120001
0.000121332
0.000122051
0.000122427
0.000122611
0.000122694
0.000122729
0.000122742
0.000122746
0.000122747
0.000122747
0.000122747
0.000122747
0.000122747
0.000122748
0.000122749
0.000122751
0.000122755
0.000122759
0.000122766
0.000122775
0.000122787
0.000122803
0.000122826
0.000122855
0.000122895
0.000122945
0.000123013
0.000123098
0.000123212
0.000123347
0.000123502
0.000123595
0.000123363
0.000121992
0.00011725
0.000105069
8.10546e-05
4.87366e-05
2.11339e-05
6.11823e-06
9.73389e-07
5.17767e-08
3.00872e-10
7.27091e-05
8.60015e-05
9.71733e-05
0.000106207
0.000113021
0.000117635
0.000120177
0.000121496
0.000122205
0.000122574
0.000122756
0.000122839
0.000122874
0.000122887
0.000122892
0.000122894
0.000122895
0.000122896
0.000122897
0.000122899
0.000122901
0.000122904
0.000122908
0.000122914
0.000122922
0.000122932
0.000122945
0.000122962
0.000122984
0.000123013
0.00012305
0.000123099
0.000123161
0.000123246
0.00012335
0.000123492
0.000123662
0.000123876
0.000124042
0.000124003
0.000123067
0.000119129
0.000108353
8.56747e-05
5.30789e-05
2.35991e-05
6.95498e-06
1.12305e-06
5.99218e-08
3.2316e-10
7.27248e-05
8.60278e-05
9.72083e-05
0.00010625
0.000113074
0.000117715
0.00012027
0.00012158
0.000122278
0.000122642
0.000122822
0.000122904
0.000122938
0.000122952
0.000122957
0.000122959
0.00012296
0.000122961
0.000122963
0.000122965
0.000122968
0.000122971
0.000122976
0.000122983
0.000122991
0.000123002
0.000123016
0.000123035
0.000123058
0.00012309
0.000123129
0.000123182
0.000123248
0.000123339
0.000123453
0.00012361
0.000123803
0.000124054
0.0001243
0.000124475
0.000124342
0.000121733
0.000114321
9.63923e-05
6.58641e-05
3.2906e-05
1.1191e-05
2.28741e-06
1.91706e-07
1.45432e-09
7.27334e-05
8.60425e-05
9.72293e-05
0.000106279
0.000113114
0.000117778
0.000120354
0.000121657
0.000122346
0.000122706
0.000122883
0.000122965
0.000122999
0.000123012
0.000123017
0.000123019
0.000123021
0.000123022
0.000123023
0.000123025
0.000123028
0.000123032
0.000123036
0.000123043
0.000123051
0.000123062
0.000123077
0.000123095
0.000123119
0.00012315
0.000123189
0.000123241
0.000123307
0.0001234
0.000123521
0.00012369
0.000123907
0.000124194
0.000124529
0.000124843
0.000124982
0.000123228
0.000117517
0.000102188
7.32162e-05
3.85286e-05
1.36822e-05
2.87646e-06
2.35295e-07
1.63635e-09
7.27426e-05
8.60587e-05
9.72531e-05
0.000106313
0.000113163
0.000117851
0.00012046
0.000121757
0.00012244
0.000122798
0.000122975
0.000123056
0.00012309
0.000123104
0.000123109
0.00012311
0.000123111
0.000123112
0.000123114
0.000123116
0.000123118
0.000123121
0.000123126
0.000123132
0.00012314
0.000123151
0.000123164
0.000123182
0.000123204
0.000123231
0.000123265
0.000123311
0.000123372
0.00012346
0.000123582
0.000123758
0.000123993
0.000124318
0.000124724
0.000125194
0.000125556
0.0001246
0.00012059
0.000108172
8.16779e-05
4.55816e-05
1.68592e-05
3.60293e-06
2.96174e-07
2.06513e-09
7.27546e-05
8.60803e-05
9.7285e-05
0.000106359
0.000113229
0.000117943
0.000120601
0.0001219
0.000122581
0.00012294
0.000123119
0.000123201
0.000123236
0.000123249
0.000123254
0.000123256
0.000123256
0.000123257
0.000123258
0.00012326
0.000123262
0.000123265
0.000123269
0.000123275
0.000123282
0.000123292
0.000123304
0.00012332
0.000123337
0.000123357
0.00012338
0.000123412
0.000123459
0.000123536
0.000123653
0.000123832
0.000124083
0.000124443
0.000124915
0.000125522
0.000126094
0.000125827
0.00012347
0.000114223
9.15354e-05
5.15106e-05
1.92038e-05
3.97159e-06
3.02389e-07
1.17603e-09
7.27699e-05
8.61079e-05
9.73257e-05
0.000106418
0.000113314
0.00011806
0.000120781
0.000122095
0.000122784
0.000123152
0.000123335
0.00012342
0.000123455
0.000123469
0.000123473
0.000123475
0.000123475
0.000123476
0.000123477
0.000123478
0.00012348
0.000123483
0.000123487
0.000123492
0.000123499
0.000123508
0.000123518
0.000123528
0.000123536
0.000123542
0.000123543
0.000123549
0.000123571
0.000123628
0.000123733
0.000123911
0.000124176
0.000124571
0.000125107
0.00012585
0.000126596
0.000126947
0.000126073
0.000120111
0.000102152
6.39068e-05
2.60125e-05
5.72922e-06
4.54222e-07
1.77473e-09
7.27875e-05
8.61399e-05
9.73733e-05
0.000106488
0.000113414
0.000118202
0.000120998
0.000122347
0.00012306
0.000123444
0.000123636
0.000123724
0.000123761
0.000123775
0.000123779
0.000123781
0.000123782
0.000123782
0.000123783
0.000123784
0.000123786
0.000123789
0.000123793
0.000123798
0.000123804
0.000123811
0.000123817
0.000123819
0.000123811
0.000123788
0.000123749
0.000123714
0.000123701
0.00012373
0.000123819
0.000123991
0.000124269
0.000124692
0.000125291
0.000126152
0.000127062
0.000127933
0.000128306
0.000124519
0.000102424
7.31881e-05
3.65518e-05
8.73719e-06
7.11593e-07
2.80264e-09
7.2806e-05
8.61737e-05
9.74237e-05
0.000106562
0.000113522
0.000118358
0.000121238
0.000122648
0.000123403
0.000123813
0.000124017
0.00012411
0.000124148
0.000124162
0.000124167
0.000124168
0.000124169
0.00012417
0.000124171
0.000124172
0.000124174
0.000124177
0.000124181
0.000124186
0.000124192
0.000124197
0.000124196
0.000124183
0.000124144
0.000124068
0.000123972
0.000123886
0.000123832
0.00012383
0.000123901
0.000124068
0.000124356
0.000124807
0.000125466
0.000126428
0.000127469
0.000128778
0.000130044
0.00011396
9.34065e-05
6.45376e-05
4.36509e-05
1.45811e-05
1.27914e-06
5.18636e-09
7.28234e-05
8.62055e-05
9.74715e-05
0.000106632
0.000113628
0.000118514
0.00012148
0.000122973
0.000123785
0.000124223
0.000124439
0.000124536
0.000124575
0.00012459
0.000124595
0.000124597
0.000124597
0.000124598
0.0001246
0.000124602
0.000124604
0.000124608
0.000124612
0.000124618
0.000124622
0.000124623
0.00012461
0.000124569
0.000124474
0.000124331
0.000124175
0.000124039
0.000123947
0.000123917
0.000123972
0.000124132
0.000124431
0.000124902
0.000125617
0.000126655
0.000127808
0.000129453
0.000125833
0.000103965
8.45521e-05
5.87196e-05
4.00712e-05
2.64357e-05
2.35758e-06
3.14456e-08
7.28376e-05
8.62317e-05
9.7511e-05
0.000106691
0.000113716
0.000118649
0.000121693
0.000123279
0.000124148
0.000124612
0.000124837
0.000124936
0.000124976
0.000124991
0.000124996
0.000124998
0.000124999
0.000125001
0.000125003
0.000125005
0.000125008
0.000125012
0.000125017
0.000125023
0.000125026
0.000125019
0.000124986
0.000124895
0.000124735
0.000124534
0.000124331
0.000124156
0.000124034
0.000123982
0.000124026
0.000124181
0.000124489
0.000124977
0.000125737
0.000126827
0.000128056
0.000129946
0.000116864
9.50964e-05
7.61257e-05
5.52527e-05
3.89595e-05
2.38031e-05
7.76333e-06
1.58284e-07
7.28471e-05
8.62493e-05
9.75376e-05
0.000106731
0.000113777
0.000118743
0.000121847
0.000123513
0.000124428
0.00012491
0.00012514
0.000125241
0.000125281
0.000125296
0.000125301
0.000125303
0.000125305
0.000125307
0.000125309
0.000125311
0.000125315
0.00012532
0.000125325
0.00012533
0.000125331
0.000125313
0.000125247
0.000125107
0.000124903
0.000124664
0.00012443
0.000124229
0.000124088
0.000124023
0.000124059
0.000124211
0.000124526
0.000125022
0.000125813
0.000126934
0.000128208
0.00013026
0.000110332
8.85845e-05
6.97666e-05
5.27614e-05
3.78297e-05
2.48173e-05
1.42944e-05
3.89404e-06
7.28505e-05
8.62555e-05
9.7547e-05
0.000106746
0.000113799
0.000118777
0.000121907
0.000123615
0.000124551
0.000125038
0.000125271
0.000125371
0.000125411
0.000125426
0.000125431
0.000125434
0.000125435
0.000125437
0.000125439
0.000125442
0.000125446
0.000125451
0.000125456
0.000125461
0.000125459
0.000125429
0.000125342
0.000125183
0.000124964
0.000124711
0.000124465
0.000124255
0.000124107
0.000124037
0.000124071
0.000124222
0.000124539
0.000125039
0.00012584
0.00012697
0.000128241
0.000130397
0.000107123
8.5441e-05
6.66617e-05
5.13436e-05
3.73575e-05
2.56693e-05
1.61893e-05
1.20147e-05
7.28471e-05
8.62493e-05
9.75376e-05
0.000106731
0.000113777
0.000118743
0.000121847
0.000123513
0.000124428
0.00012491
0.00012514
0.000125241
0.000125281
0.000125296
0.000125301
0.000125303
0.000125305
0.000125307
0.000125309
0.000125311
0.000125315
0.00012532
0.000125325
0.00012533
0.000125331
0.000125313
0.000125248
0.000125109
0.000124906
0.000124667
0.000124431
0.00012423
0.000124089
0.000124023
0.000124059
0.000124211
0.000124526
0.000125022
0.000125813
0.000126933
0.000128159
0.000130353
0.000107805
8.62862e-05
6.75916e-05
5.13336e-05
3.71559e-05
2.49539e-05
1.35875e-05
5.01999e-06
7.28376e-05
8.62317e-05
9.7511e-05
0.000106691
0.000113716
0.000118649
0.000121693
0.000123279
0.000124148
0.000124612
0.000124837
0.000124936
0.000124976
0.000124991
0.000124996
0.000124998
0.000124999
0.000125001
0.000125003
0.000125005
0.000125008
0.000125012
0.000125017
0.000125023
0.000125026
0.000125019
0.000124987
0.0001249
0.000124742
0.000124538
0.000124333
0.000124157
0.000124035
0.000123983
0.000124026
0.000124181
0.000124489
0.000124976
0.000125737
0.000126827
0.000127964
0.000130126
0.000112324
9.09403e-05
7.22214e-05
5.33588e-05
3.7716e-05
2.33195e-05
1.11237e-05
2.13442e-07
7.28234e-05
8.62055e-05
9.74715e-05
0.000106632
0.000113628
0.000118514
0.00012148
0.000122973
0.000123785
0.000124223
0.000124439
0.000124536
0.000124575
0.00012459
0.000124595
0.000124597
0.000124597
0.000124598
0.0001246
0.000124602
0.000124604
0.000124608
0.000124612
0.000124618
0.000124622
0.000124623
0.000124611
0.000124571
0.000124477
0.000124333
0.000124177
0.00012404
0.000123948
0.000123917
0.000123972
0.000124131
0.00012443
0.000124902
0.000125617
0.000126655
0.000127672
0.000129725
0.000119853
9.85573e-05
7.96515e-05
5.79925e-05
4.0169e-05
2.24577e-05
4.50954e-06
3.6973e-08
7.2806e-05
8.61737e-05
9.74237e-05
0.000106562
0.000113522
0.000118358
0.000121238
0.000122648
0.000123403
0.000123813
0.000124017
0.00012411
0.000124148
0.000124162
0.000124167
0.000124168
0.000124169
0.00012417
0.000124171
0.000124172
0.000124174
0.000124177
0.000124181
0.000124186
0.000124192
0.000124197
0.000124197
0.000124184
0.000124145
0.000124069
0.000123973
0.000123886
0.000123832
0.00012383
0.000123901
0.000124067
0.000124356
0.000124807
0.000125466
0.000126428
0.000127299
0.000129136
0.000129685
0.000108033
8.82616e-05
6.51522e-05
4.60581e-05
1.67997e-05
1.52885e-06
6.43439e-09
7.27875e-05
8.61399e-05
9.73733e-05
0.000106488
0.000113414
0.000118202
0.000120998
0.000122347
0.00012306
0.000123444
0.000123636
0.000123724
0.000123761
0.000123775
0.000123779
0.000123781
0.000123782
0.000123782
0.000123783
0.000123784
0.000123786
0.000123789
0.000123793
0.000123798
0.000123804
0.000123811
0.000123817
0.00012382
0.000123812
0.000123788
0.00012375
0.000123714
0.000123701
0.00012373
0.000123818
0.000123991
0.000124268
0.000124692
0.000125291
0.000126152
0.000126855
0.000128376
0.000129242
0.000118287
9.68665e-05
7.19842e-05
3.99278e-05
9.81339e-06
8.07076e-07
3.18802e-09
7.27699e-05
8.61079e-05
9.73257e-05
0.000106418
0.000113314
0.00011806
0.000120781
0.000122095
0.000122784
0.000123152
0.000123335
0.00012342
0.000123455
0.000123469
0.000123473
0.000123475
0.000123475
0.000123476
0.000123477
0.000123478
0.00012348
0.000123483
0.000123487
0.000123492
0.000123499
0.000123508
0.000123518
0.000123528
0.000123537
0.000123542
0.000123543
0.000123549
0.000123571
0.000123628
0.000123733
0.000123911
0.000124176
0.00012457
0.000125107
0.00012585
0.000126372
0.000127453
0.000127241
0.000122805
0.00010561
6.74366e-05
2.82154e-05
6.31675e-06
5.03022e-07
1.96714e-09
7.27546e-05
8.60803e-05
9.7285e-05
0.000106359
0.000113229
0.000117943
0.000120601
0.0001219
0.000122581
0.00012294
0.000123119
0.000123201
0.000123236
0.000123249
0.000123254
0.000123256
0.000123256
0.000123257
0.000123258
0.00012326
0.000123262
0.000123265
0.000123269
0.000123275
0.000123282
0.000123292
0.000123304
0.00012332
0.000123337
0.000123357
0.00012338
0.000123412
0.000123459
0.000123536
0.000123653
0.000123832
0.000124083
0.000124443
0.000124915
0.000125522
0.000125838
0.000126401
0.000124811
0.000117215
9.6799e-05
5.42912e-05
2.06285e-05
4.33192e-06
3.3533e-07
1.31031e-09
7.27426e-05
8.60587e-05
9.72531e-05
0.000106313
0.000113163
0.000117851
0.000120459
0.000121757
0.00012244
0.000122798
0.000122975
0.000123056
0.00012309
0.000123104
0.000123109
0.00012311
0.000123111
0.000123112
0.000123114
0.000123116
0.000123118
0.000123121
0.000123126
0.000123132
0.00012314
0.000123151
0.000123164
0.000123182
0.000123204
0.000123231
0.000123265
0.000123311
0.000123372
0.00012346
0.000123582
0.000123758
0.000123993
0.000124318
0.000124724
0.000125194
0.0001253
0.000125221
0.000122062
0.000111217
8.64532e-05
5.00148e-05
1.90334e-05
4.13997e-06
3.47094e-07
2.44268e-09
7.27334e-05
8.60425e-05
9.72293e-05
0.000106279
0.000113114
0.000117778
0.000120354
0.000121657
0.000122346
0.000122706
0.000122883
0.000122965
0.000122999
0.000123012
0.000123017
0.000123019
0.000123021
0.000123022
0.000123023
0.000123025
0.000123028
0.000123032
0.000123036
0.000123043
0.000123051
0.000123062
0.000123077
0.000123095
0.000123119
0.00012315
0.000123188
0.000123241
0.000123307
0.0001234
0.000123521
0.00012369
0.000123906
0.000124194
0.000124529
0.000124843
0.000124678
0.000123926
0.000119061
0.000105161
7.73028e-05
4.18544e-05
1.51644e-05
3.21368e-06
2.63069e-07
1.83159e-09
7.27248e-05
8.60278e-05
9.72083e-05
0.00010625
0.000113074
0.000117715
0.00012027
0.00012158
0.000122278
0.000122642
0.000122822
0.000122904
0.000122938
0.000122952
0.000122957
0.000122959
0.00012296
0.000122961
0.000122963
0.000122965
0.000122968
0.000122971
0.000122976
0.000122983
0.000122991
0.000123002
0.000123016
0.000123035
0.000123058
0.00012309
0.000123129
0.000123182
0.000123248
0.000123339
0.000123453
0.00012361
0.000123803
0.000124054
0.0001243
0.000124475
0.000124015
0.000122496
0.000115952
9.9302e-05
6.94903e-05
3.56587e-05
1.2429e-05
2.59078e-06
2.13074e-07
1.49507e-09
7.27091e-05
8.60015e-05
9.71733e-05
0.000106207
0.000113021
0.000117635
0.000120177
0.000121496
0.000122205
0.000122574
0.000122756
0.000122839
0.000122874
0.000122887
0.000122892
0.000122894
0.000122895
0.000122896
0.000122897
0.000122899
0.000122901
0.000122904
0.000122908
0.000122914
0.000122922
0.000122932
0.000122945
0.000122962
0.000122984
0.000123013
0.00012305
0.000123099
0.000123161
0.000123246
0.00012335
0.000123492
0.000123662
0.000123876
0.000124042
0.000124003
0.000123067
0.000119129
0.000108352
8.56746e-05
5.30789e-05
2.35991e-05
6.95497e-06
1.12305e-06
5.99217e-08
3.23159e-10
7.26619e-05
8.59232e-05
9.70729e-05
0.000106089
0.000112891
0.000117471
0.000120001
0.000121332
0.000122051
0.000122427
0.000122611
0.000122694
0.000122729
0.000122742
0.000122746
0.000122747
0.000122747
0.000122747
0.000122747
0.000122747
0.000122748
0.000122749
0.000122751
0.000122755
0.000122759
0.000122766
0.000122775
0.000122787
0.000122803
0.000122826
0.000122855
0.000122895
0.000122945
0.000123013
0.000123098
0.000123212
0.000123347
0.000123502
0.000123595
0.000123363
0.000121992
0.00011725
0.000105069
8.10545e-05
4.87366e-05
2.11339e-05
6.11823e-06
9.73388e-07
5.17767e-08
3.00872e-10
7.25093e-05
8.56704e-05
9.67521e-05
0.000105719
0.000112493
0.000117028
0.000119541
0.000120886
0.000121617
0.000121998
0.000122183
0.000122266
0.000122299
0.000122311
0.000122313
0.000122311
0.000122309
0.000122306
0.000122302
0.000122298
0.000122294
0.00012229
0.000122286
0.000122282
0.000122278
0.000122275
0.000122273
0.000122273
0.000122274
0.00012228
0.000122288
0.000122304
0.000122325
0.00012236
0.000122404
0.000122468
0.00012254
0.000122611
0.000122587
0.00012216
0.000120439
0.000115132
0.000102049
7.74376e-05
4.57614e-05
1.96132e-05
5.64487e-06
8.95195e-07
4.76192e-08
2.77744e-10
7.20425e-05
8.49009e-05
9.57835e-05
0.000104612
0.00011131
0.000115774
0.000118261
0.000119623
0.000120365
0.000120751
0.000120937
0.000121018
0.000121047
0.000121053
0.00012105
0.000121042
0.000121032
0.000121021
0.000121008
0.000120994
0.000120977
0.000120959
0.000120939
0.000120917
0.000120892
0.000120866
0.000120836
0.000120805
0.000120769
0.000120734
0.000120694
0.000120656
0.000120613
0.000120575
0.000120533
0.000120498
0.000120453
0.000120387
0.000120194
0.000119554
0.000117491
0.000111782
9.82606e-05
7.37208e-05
4.30962e-05
1.83481e-05
5.26325e-06
8.32937e-07
4.42966e-08
2.58742e-10
7.07298e-05
8.27596e-05
9.31169e-05
0.000101596
0.000108099
0.000112437
0.000114889
0.000116273
0.000117034
0.000117427
0.000117612
0.000117687
0.000117708
0.000117703
0.000117687
0.000117666
0.00011764
0.000117611
0.000117577
0.000117539
0.000117495
0.000117447
0.000117391
0.00011733
0.000117259
0.000117182
0.000117093
0.000116996
0.000116884
0.000116764
0.000116625
0.000116477
0.000116307
0.000116127
0.00011592
0.000115702
0.000115446
0.000115148
0.000114691
0.000113769
0.000111462
0.000105644
9.24772e-05
6.91565e-05
4.04067e-05
1.72368e-05
4.95393e-06
7.84445e-07
4.17313e-08
2.43907e-10
6.74002e-05
7.74492e-05
8.66199e-05
9.43575e-05
0.000100462
0.000104541
0.000106973
0.000108409
0.000109213
0.000109626
0.000109813
0.000109878
0.000109883
0.00010986
0.000109822
0.000109777
0.000109722
0.000109661
0.000109589
0.00010951
0.000109418
0.000109316
0.000109198
0.000109069
0.000108919
0.000108756
0.000108565
0.000108358
0.000108119
0.000107859
0.000107558
0.000107234
0.000106861
0.000106462
0.000106005
0.000105519
0.000104961
0.000104346
0.000103552
0.000102341
9.9921e-05
9.44916e-05
8.27981e-05
6.23495e-05
3.68812e-05
1.59293e-05
4.61323e-06
7.32604e-07
3.90182e-08
2.28296e-10
6.00411e-05
6.62726e-05
7.33418e-05
7.98568e-05
8.52514e-05
8.89664e-05
9.14434e-05
9.29946e-05
9.38804e-05
9.43315e-05
9.4524e-05
9.45797e-05
9.45656e-05
9.45193e-05
9.44552e-05
9.43801e-05
9.42901e-05
9.41896e-05
9.40729e-05
9.3944e-05
9.37944e-05
9.36299e-05
9.34394e-05
9.32305e-05
9.29888e-05
9.2725e-05
9.24201e-05
9.20888e-05
9.17067e-05
9.12939e-05
9.08194e-05
9.031e-05
8.97277e-05
8.91078e-05
8.84048e-05
8.7663e-05
8.68278e-05
8.5938e-05
8.48832e-05
8.35308e-05
8.12963e-05
7.69273e-05
6.80117e-05
5.23689e-05
3.20201e-05
1.42708e-05
4.21419e-06
6.74752e-07
3.6031e-08
2.10992e-10
4.67636e-05
4.79613e-05
5.24888e-05
5.74876e-05
6.18754e-05
6.53422e-05
6.78605e-05
6.94953e-05
7.04346e-05
7.09055e-05
7.10976e-05
7.11449e-05
7.11191e-05
7.10602e-05
7.09839e-05
7.0893e-05
7.07854e-05
7.0666e-05
7.05273e-05
7.03747e-05
7.0198e-05
7.00042e-05
6.97802e-05
6.95357e-05
6.92535e-05
6.8947e-05
6.85942e-05
6.82131e-05
6.77759e-05
6.73067e-05
6.67712e-05
6.62009e-05
6.55548e-05
6.48733e-05
6.41092e-05
6.33123e-05
6.24293e-05
6.1511e-05
6.0475e-05
5.92793e-05
5.75792e-05
5.46885e-05
4.91348e-05
3.92521e-05
2.5385e-05
1.19726e-05
3.67013e-06
5.97422e-07
3.20667e-08
1.88042e-10
2.9048e-05
2.69957e-05
2.96138e-05
3.31012e-05
3.65496e-05
3.95156e-05
4.17279e-05
4.31708e-05
4.39922e-05
4.43962e-05
4.45565e-05
4.45935e-05
4.45693e-05
4.45216e-05
4.44569e-05
4.43809e-05
4.42913e-05
4.41924e-05
4.40776e-05
4.39516e-05
4.38059e-05
4.36467e-05
4.34629e-05
4.32631e-05
4.30331e-05
4.27845e-05
4.24992e-05
4.21927e-05
4.18427e-05
4.14695e-05
4.1046e-05
4.05983e-05
4.00946e-05
3.95679e-05
3.89824e-05
3.83778e-05
3.77156e-05
3.70379e-05
3.62951e-05
3.54906e-05
3.44631e-05
3.29254e-05
3.01691e-05
2.5211e-05
1.75764e-05
9.04237e-06
2.9603e-06
4.97485e-07
2.6962e-08
1.58385e-10
1.3268e-05
1.13151e-05
1.27949e-05
1.49846e-05
1.72696e-05
1.92509e-05
2.07247e-05
2.16753e-05
2.22072e-05
2.24637e-05
2.25634e-05
2.25862e-05
2.25716e-05
2.25446e-05
2.25063e-05
2.24617e-05
2.24093e-05
2.23517e-05
2.22847e-05
2.22115e-05
2.21268e-05
2.20345e-05
2.1928e-05
2.18127e-05
2.168e-05
2.15371e-05
2.13734e-05
2.11983e-05
2.09987e-05
2.07869e-05
2.05472e-05
2.02952e-05
2.00127e-05
1.97191e-05
1.93942e-05
1.9061e-05
1.86981e-05
1.83304e-05
1.79335e-05
1.7519e-05
1.70253e-05
1.636e-05
1.52561e-05
1.32937e-05
1.00311e-05
5.76736e-06
2.09564e-06
3.73778e-07
2.06428e-08
1.21634e-10
4.32269e-06
3.50737e-06
4.22918e-06
5.28688e-06
6.38673e-06
7.33445e-06
8.03107e-06
8.4731e-06
8.71584e-06
8.83065e-06
8.87453e-06
8.88418e-06
8.8784e-06
8.86705e-06
8.85083e-06
8.83211e-06
8.81013e-06
8.786e-06
8.75795e-06
8.72735e-06
8.6919e-06
8.6534e-06
8.60893e-06
8.56091e-06
8.50561e-06
8.44627e-06
8.37824e-06
8.30573e-06
8.22307e-06
8.13569e-06
8.03683e-06
7.93331e-06
7.81739e-06
7.69735e-06
7.56474e-06
7.42926e-06
7.28213e-06
7.13384e-06
6.97495e-06
6.81238e-06
6.62655e-06
6.39464e-06
6.03773e-06
5.42781e-06
4.38128e-06
2.83759e-06
1.19874e-06
2.39555e-07
1.37884e-08
8.16988e-11
1.01043e-06
7.8006e-07
1.01025e-06
1.34611e-06
1.69297e-06
1.98815e-06
2.20185e-06
2.33528e-06
2.40739e-06
2.44097e-06
2.4536e-06
2.45622e-06
2.45465e-06
2.45135e-06
2.44668e-06
2.44133e-06
2.43504e-06
2.42815e-06
2.42014e-06
2.41141e-06
2.40128e-06
2.39031e-06
2.37763e-06
2.36396e-06
2.3482e-06
2.33134e-06
2.31198e-06
2.29141e-06
2.26794e-06
2.24319e-06
2.21519e-06
2.18594e-06
2.15319e-06
2.11936e-06
2.08202e-06
2.04396e-06
2.00267e-06
1.96119e-06
1.91691e-06
1.87208e-06
1.82198e-06
1.76232e-06
1.67556e-06
1.53441e-06
1.29575e-06
9.27805e-07
4.70234e-07
1.16041e-07
7.4408e-09
4.47515e-11
1.67827e-07
1.092e-07
1.43814e-07
1.99917e-07
2.57652e-07
3.06111e-07
3.40759e-07
3.62166e-07
3.73623e-07
3.78908e-07
3.8087e-07
3.8125e-07
3.81003e-07
3.80472e-07
3.79725e-07
3.78873e-07
3.77871e-07
3.76777e-07
3.75502e-07
3.74116e-07
3.72506e-07
3.70765e-07
3.68749e-07
3.66581e-07
3.6408e-07
3.61407e-07
3.58339e-07
3.55081e-07
3.51365e-07
3.47452e-07
3.43025e-07
3.38407e-07
3.33238e-07
3.27909e-07
3.22026e-07
3.16042e-07
3.09554e-07
3.03049e-07
2.96117e-07
2.89141e-07
2.81425e-07
2.72457e-07
2.59819e-07
2.39939e-07
2.072e-07
1.57499e-07
9.31708e-08
3.14776e-08