/*--------------------------------*- C++ -*----------------------------------*\
| =========                 |                                                 |
| \\      /  F ield         | foam-extend: Open Source CFD                    |
|  \\    /   O peration     | Version:     4.0                                |
|   \\  /    A nd           | Web:         http://www.foam-extend.org         |
|    \\/     M anipulation  |                                                 |
\*---------------------------------------------------------------------------*/
FoamFile
{
    version     2.0;
    format      ascii;
    class       volScalarField;
    location    "6e-05";
    object      omega;
}
// * * * * * * * * * * * * * * * * * * * * * * * * * * * * * * * * * * * * * //

dimensions      [0 0 -1 0 0 0 0];

internalField   nonuniform List<scalar> 
28770
(
1.87595e+07
1.87595e+07
1.87595e+07
1.87595e+07
1.87595e+07
1.87595e+07
1.87595e+07
1.87595e+07
1.87595e+07
1.87595e+07
1.87595e+07
1.87595e+07
1.87595e+07
1.87595e+07
1.87595e+07
1.87595e+07
1.87595e+07
1.87595e+07
1.87595e+07
1.87595e+07
1.87595e+07
1.87595e+07
1.87595e+07
1.87595e+07
1.87595e+07
1.87595e+07
1.87595e+07
1.87595e+07
1.87595e+07
1.87595e+07
1.87595e+07
1.87595e+07
1.87595e+07
1.87595e+07
1.87595e+07
1.87595e+07
1.87595e+07
1.87595e+07
1.87595e+07
1.87595e+07
1.87595e+07
1.87595e+07
1.87595e+07
1.87595e+07
1.87595e+07
1.87595e+07
1.87595e+07
1.87595e+07
1.87595e+07
1.87595e+07
2.45169e+06
3.14927e+06
3.2252e+06
3.23486e+06
3.2366e+06
3.23711e+06
3.2374e+06
3.23761e+06
3.23787e+06
3.23812e+06
3.23845e+06
3.23877e+06
3.23921e+06
3.23963e+06
3.2402e+06
3.24075e+06
3.24148e+06
3.24217e+06
3.24311e+06
3.24399e+06
3.24517e+06
3.24627e+06
3.24777e+06
3.24914e+06
3.251e+06
3.25269e+06
3.255e+06
3.25706e+06
3.25988e+06
3.26237e+06
3.26576e+06
3.26873e+06
3.27272e+06
3.27618e+06
3.28077e+06
3.28472e+06
3.28982e+06
3.29419e+06
3.29964e+06
3.30427e+06
3.3098e+06
3.31444e+06
3.31971e+06
3.32408e+06
3.32894e+06
3.33424e+06
3.34925e+06
3.45057e+06
4.48379e+06
1.79872e+07
504856
937995
1.05755e+06
1.08873e+06
1.09759e+06
1.10044e+06
1.1015e+06
1.10195e+06
1.1022e+06
1.10237e+06
1.10254e+06
1.10271e+06
1.10291e+06
1.10312e+06
1.10339e+06
1.10366e+06
1.104e+06
1.10435e+06
1.10478e+06
1.10522e+06
1.10577e+06
1.10633e+06
1.10702e+06
1.10772e+06
1.10858e+06
1.10945e+06
1.11052e+06
1.11158e+06
1.11289e+06
1.11418e+06
1.11576e+06
1.1173e+06
1.11917e+06
1.12098e+06
1.12315e+06
1.12522e+06
1.12765e+06
1.12995e+06
1.13258e+06
1.13503e+06
1.13775e+06
1.14027e+06
1.14309e+06
1.14618e+06
1.15142e+06
1.16553e+06
1.22349e+06
1.51537e+06
3.23506e+06
1.79872e+07
131235
342309
447383
490940
508373
515465
518429
519695
520265
520550
520741
520898
521068
521246
521459
521688
521962
522255
522606
522979
523425
523896
524459
525050
525755
526491
527366
528274
529350
530457
531761
533092
534647
536218
538032
539843
541897
543921
546167
548357
550760
553231
556378
561282
572419
604866
716288
1.14346e+06
3.09514e+06
1.79872e+07
42756.1
138390
208843
249554
270658
281062
286032
288335
289383
289867
290125
290297
290457
290619
290807
291011
291253
291516
291826
292161
292556
292981
293480
294015
294643
295312
296095
296925
297893
298912
300094
301328
302748
304219
305891
307604
309521
311460
313592
315747
318176
320995
325241
333332
352678
404748
557557
1.05367e+06
3.07378e+06
1.79872e+07
17693.6
61923.5
103688
134535
154098
165397
171479
174550
176016
176691
177017
177203
177349
177487
177641
177810
178008
178226
178480
178758
179084
179438
179851
180298
180820
181384
182039
182742
183558
184429
185434
186501
187723
189008
190467
191985
193684
195434
197369
199399
201810
205001
210541
222169
249684
318123
497941
1.02666e+06
3.06859e+06
1.79872e+07
9512.25
32286.9
56722.1
77935
93786.8
104202
110407
113790
115491
116290
116660
116847
116971
117076
117189
117311
117454
117611
117795
117997
118232
118491
118791
119120
119502
119919
120402
120926
121534
122190
122948
123761
124695
125691
126825
128022
129370
130783
132371
134113
136349
139738
146338
160951
194991
275107
471149
1.01542e+06
3.06544e+06
1.79872e+07
6564.36
20583.3
36435.7
51300.8
63592.8
72595.1
78411.7
81786.6
83559.3
84411.1
84798.7
84977.7
85077.6
85151.1
85223.6
85300.6
85389.8
85488.5
85603.8
85731.1
85879.6
86043.2
86233.9
86443.4
86687.6
86955.1
87266.6
87607.1
88003.1
88434.4
88934.9
89477.8
90105.3
90781.9
91558.9
92390.5
93337.3
94348.7
95516.6
96877
98814.6
102187
109409
126013
164398
251895
457256
1.0094e+06
3.06325e+06
1.79872e+07
5441.75
15935
27892.5
39533.5
49493.5
57304.2
62671.9
65928.2
67693.3
68556.4
68945.6
69114.7
69195.4
69244.5
69286.9
69329.9
69379.1
69433.6
69497.2
69567.8
69650.3
69741.6
69848.3
69966.1
70103.8
70255.8
70433.5
70629.3
70858.1
71109.9
71403.9
71726.5
72102.5
72513.3
72990.1
73508.2
74107
74762.1
75549.7
76546.9
78160.9
81369
88782.1
106341
146974
238316
448354
1.00419e+06
3.05996e+06
1.79872e+07
5009.61
14105.1
24403.3
34576
43406.2
50448.3
55501.8
58653.4
60394.5
61255.1
61641.4
61803
61871.3
61905
61928.8
61950.8
61975.2
62002.1
62033.6
62068.8
62109.9
62155.8
62209.6
62269.4
62339.7
62418
62510
62612.5
62733.3
62867.8
63026.4
63203.1
63411.2
63642.7
63915
64216.8
64572.8
64975.1
65487.5
66210.8
67554.7
70550.5
77882.3
95668.1
137093
230012
442164
999929
3.05723e+06
1.79872e+07
4847.34
13406
23036.9
32583
40928.5
47606.3
52485.9
55577.3
57302.2
58159.8
58543.8
58701.1
58762.8
58788.3
58802.2
58813
58824.1
58836.4
58850.7
58866.8
58885.8
58907.1
58932.3
58960.8
58994.4
59032.4
59077.5
59128.6
59189.5
59258.8
59341.4
59435.7
59548.2
59676.8
59830.4
60005.8
60217.5
60468.1
60811
61355.9
62502.6
65277.8
72343.5
89817.3
130938
223733
436065
994216
3.05237e+06
1.79872e+07
4789.13
13151.4
22530.8
31831.6
39986.9
46508.1
51303.1
54374.6
56095.2
56952.6
57336.2
57491.9
57550.6
57572.2
57581.5
57587
57592
57597.4
57603.7
57610.8
57619.4
57629.2
57640.8
57654.4
57670.5
57689.4
57712
57738.5
57770.5
57808.2
57853.9
57908
57973.7
58051.8
58146.8
58260
58400.2
58575.3
58831.1
59276.1
60288.8
62862.4
69583.2
86472
126733
218595
430383
988817
3.04841e+06
1.79872e+07
4769.18
13063.6
22354.5
31567.7
39657.6
46107.5
50862.1
53933.3
55657.5
56517.5
56902
57057.6
57115.2
57135.4
57142.7
57146.1
57148.5
57151
57154
57157.4
57161.6
57166.6
57172.6
57179.9
57188.7
57199.5
57212.6
57228.8
57248.6
57273.1
57303.1
57340.5
57386.3
57443.6
57513.8
57601.8
57711.4
57855.6
58070.3
58457.7
59378.8
61749.1
68020.9
84022.3
122782
212650
422546
979956
3.04038e+06
1.79872e+07
4762.43
13034.3
22295.9
31480.5
39550.6
45963.5
50697.3
53774.3
55505.4
56369.4
56755.8
56911.9
56969.4
56989.1
56995.7
56998.3
56999.9
57001.3
57003
57005.1
57007.6
57010.8
57014.8
57019.8
57025.9
57033.8
57043.5
57055.9
57071.3
57091.2
57115.8
57147.6
57187
57238.1
57301.1
57383.3
57486.4
57627.1
57834.7
58203.7
59046.5
61199.4
66959.1
81876.1
118697
205799
412783
968272
3.02957e+06
1.79872e+07
4759.81
13024
22275.9
31451.3
39515.6
45906.2
50627
53710.2
55449
56317.6
56706.1
56863
56920.7
56940.4
56946.8
56949.2
56950.4
56951.6
56952.8
56954.5
56956.5
56959.2
56962.5
56966.8
56972.1
56979.2
56987.9
56999.4
57013.7
57032.6
57056.2
57087.6
57126.5
57178.3
57242
57328
57433.7
57585
57783.6
58139.5
58912.9
60813.3
65873.9
79216.6
112893
194496
392540
931870
2.95528e+06
1.79872e+07
4758.36
13019.1
22266.8
31438.6
39500
45875.1
50585.4
53673.3
55419.1
56292.2
56682.9
56840.7
56898.8
56918.5
56924.9
56927.2
56928.4
56929.5
56930.7
56932.3
56934.2
56936.8
56940
56944.2
56949.4
56956.4
56965.1
56976.6
56991.2
57010.7
57035.2
57068.1
57109.1
57164
57232
57323.3
57435.6
57591.8
57794.7
58141.5
58610.2
59944
63461.4
72889.3
97339.7
157870
303669
674426
1.90872e+06
1.22565e+07
4757.1
13015.3
22260.1
31428.7
39486.7
45850
50547.7
53638.8
55390.9
56267.8
56660.4
56819.1
56877.4
56897.3
56903.8
56906.1
56907.4
56908.5
56909.7
56911.4
56913.4
56916
56919.3
56923.7
56929.1
56936.3
56945.4
56957.6
56973.1
56994
57020.8
57056.8
57102.1
57162.5
57237.3
57337.2
57462.1
57631.6
57857.3
58195.5
58655.2
59762.2
62678
70530.6
91323.7
144245
275786
625303
1.88346e+06
1.23021e+07
4755.82
13011.4
22252.8
31417.6
39470.5
45824.1
50503
53595.4
55353.1
56232.8
56626.8
56786
56844.6
56864.7
56871.2
56873.7
56875
56876.2
56877.5
56879.2
56881.4
56884.2
56887.7
56892.3
56898
56905.6
56915.4
56928.5
56945.6
56968.9
56999.3
57040.1
57091.7
57159.4
57243.2
57354
57492.7
57681.3
57930
58294.1
58744.8
59717.7
62133.9
68558.7
85881
131606
251200
586575
1.83414e+06
1.22572e+07
4754.42
13007.1
22244.4
31403.9
39449.7
45793.7
50447
53537.1
55298.2
56179
56573.3
56732.8
56791.6
56811.8
56818.4
56821
56822.4
56823.7
56825.1
56827
56829.3
56832.3
56836
56840.8
56847
56855.2
56865.8
56880.4
56900
56927.4
56963.8
57012.6
57073.7
57151.7
57247.2
57370.7
57525.8
57735
58010.5
58406.8
58875.4
59754
61796.8
66953.5
80763.2
125361
242413
590093
1.93109e+06
1.67843e+07
4753
13002.4
22234.9
31387.7
39424.3
45756.6
50378.7
53460.1
55220
56099
56492.4
56651.6
56710.5
56730.7
56737.5
56740.1
56741.5
56742.9
56744.4
56746.4
56748.9
56752
56755.9
56761
56767.6
56776.4
56788.3
56805.1
56828.9
56863.1
56909.8
56971
57045.7
57137.1
57246.4
57384.7
57557.5
57790.7
58096.5
58539.8
59034.1
59886.6
61677
65820.3
76584.2
111987
210474
519413
1.78629e+06
1.66108e+07
4751.56
12997.5
22224.7
31369.6
39395.2
45712.7
50299.5
53362.8
55114
55987.1
56377.9
56536.4
56595.2
56615.5
56622.3
56624.9
56626.4
56627.8
56629.4
56631.4
56633.9
56637.1
56641.2
56646.5
56653.4
56663
56676.7
56697.2
56728.3
56774.6
56838.8
56918.3
57010.6
57117.6
57242.7
57395.7
57587.1
57842.6
58181.6
58671.9
59212.6
60088
61759.3
65190.2
73497.1
100534
179258
449042
1.66636e+06
1.64747e+07
4750.23
12992.8
22214.6
31351.3
39364.6
45664.9
50213.9
53247.7
54980.5
55843.9
56230.8
56388.4
56447.1
56467.5
56474.3
56477
56478.5
56479.9
56481.4
56483.4
56485.8
56489
56493
56498.3
56505.6
56516.4
56533
56559.9
56603.9
56672.2
56761
56862.2
56973.8
57097
57237.6
57405
57614.7
57891.5
58264.9
58800.8
59389
60342.6
62008.8
65048.2
71584.8
91556.2
150435
368939
1.48409e+06
1.6149e+07
4749.06
12988.5
22205.4
31334.2
39335.6
45618
50129.6
53123.7
54830.9
55682.7
56065.9
56222.8
56281.7
56302.2
56309.1
56311.7
56313.1
56314.4
56315.8
56317.7
56320
56322.9
56326.8
56332.2
56340
56352.5
56374
56412.5
56479.8
56576.3
56690
56811.8
56941.1
57078.4
57232.8
57411.8
57637.9
57931.6
58337.8
58910.4
59552.2
60612.1
62366.4
65303.2
70865.7
85809
126413
277926
1.29827e+06
1.05397e+07
4748.18
12985.2
22198
31320.4
39311.6
45578.1
50056.6
53007.2
54687.5
55528.7
55909.4
56066.2
56125.3
56146.1
56153
56155.6
56156.9
56158.1
56159.4
56161.1
56163.1
56165.9
56169.6
56175
56183.6
56199.1
56229.1
56288.3
56383
56503
56636.2
56773.8
56916.7
57064.8
57229.8
57417.7
57656.8
57963.3
58396.8
58995.7
59678.7
60859.5
62748.9
65793.1
71072.5
83386.4
110898
200024
830978
8.47197e+06
4747.58
12983.1
22193.2
31311.2
39295.5
45550.7
50004.6
52917.4
54575.5
55409.6
55789
55946.2
56005.7
56026.7
56033.7
56036.2
56037.5
56038.6
56039.7
56041.2
56043.1
56045.8
56049.3
56054.9
56064.6
56084.5
56128.5
56208.1
56321
56456
56602
56749.9
56901.5
57056.2
57227.8
57421
57668.7
57982.5
58434.5
59048.9
59760.6
61045.4
63061.1
66280.6
71669.3
83203.8
105011
158016
325826
2.28321e+06
4747.4
12982.3
22191.5
31308
39289.9
45541.2
49985.1
52877.9
54525.6
55357.1
55736.5
55894
55953.9
55974.9
55982
55984.5
55985.7
55986.8
55987.9
55989.3
55991.2
55993.7
55997.3
56003
56013.7
56038.9
56092.3
56179.5
56298.6
56439.1
56589.9
56741.7
56896.4
57053.6
57227.5
57422.7
57673.3
57989.8
58448
59067.4
59779.4
61133.5
63216.2
66543.6
72073.6
83520
104133
146981
239057
473315
4747.58
12983.1
22193.2
31311.2
39295.5
45550.7
50004.6
52917.4
54575.5
55409.6
55789
55946.2
56005.7
56026.7
56033.7
56036.2
56037.5
56038.6
56039.7
56041.2
56043.1
56045.8
56049.3
56054.9
56064.6
56084.4
56128.2
56207.3
56319.9
56455.1
56601.4
56749.6
56901.3
57056.1
57227.8
57421.1
57668.7
57982.5
58434.5
59048.9
59735.7
61104.8
63164
66453.1
71929.3
83323.8
104564
153105
304486
1.70288e+06
4748.18
12985.2
22198
31320.4
39311.6
45578.1
50056.6
53007.2
54687.5
55528.7
55909.4
56066.2
56125.3
56146.1
56153
56155.6
56156.9
56158.1
56159.4
56161.1
56163.1
56165.9
56169.6
56175
56183.6
56198.9
56228.5
56286.1
56380.2
56501.2
56635.2
56773.4
56916.5
57064.8
57229.8
57417.8
57656.9
57963.3
58396.8
58995.7
59633.9
60962.3
62919.9
66052.6
71362
83229.4
108677
185927
572099
7.92901e+06
4749.06
12988.5
22205.4
31334.2
39335.6
45618
50129.6
53123.7
54831
55682.7
56065.9
56222.8
56281.7
56302.2
56309.1
56311.7
56313.1
56314.4
56315.8
56317.7
56320
56323
56326.8
56332.2
56340
56352.4
56373.7
56411.6
56478.8
56575.4
56689.4
56811.5
56941
57078.4
57232.8
57411.9
57638
57931.6
58337.9
58910.5
59489.2
60742.7
62561.7
65534.5
70889.8
84929.3
121563
256071
949220
1.03666e+07
4750.23
12992.8
22214.6
31351.3
39364.6
45664.9
50213.9
53247.7
54980.5
55843.9
56230.8
56388.4
56447.1
56467.5
56474.3
56477
56478.5
56479.9
56481.4
56483.4
56485.8
56489
56493
56498.3
56505.6
56516.3
56532.8
56559.6
56603.4
56671.8
56760.7
56862
56973.8
57097
57237.7
57405.1
57614.7
57891.6
58264.9
58800.8
59318.8
60476.7
62179.1
65132.9
71087.1
89807
143873
348398
1.41869e+06
1.57182e+07
4751.56
12997.5
22224.7
31369.6
39395.2
45712.7
50299.5
53362.8
55114
55987.1
56377.9
56536.4
56595.2
56615.5
56622.3
56624.9
56626.4
56627.8
56629.4
56631.5
56633.9
56637.1
56641.2
56646.5
56653.4
56663
56676.6
56697.1
56728.1
56774.4
56838.7
56918.2
57010.7
57117.7
57242.8
57395.8
57587.2
57842.7
58181.6
58671.9
59135.3
60211.3
61866.4
65059.6
72389.5
98058.3
171860
430940
1.63259e+06
1.6445e+07
4753
13002.4
22234.9
31387.7
39424.3
45756.6
50378.7
53460.1
55220
56099
56492.4
56651.6
56710.5
56730.7
56737.5
56740.1
56741.5
56742.9
56744.4
56746.4
56748.9
56752
56755.9
56761
56767.6
56776.4
56788.2
56805
56828.8
56863
56909.7
56971
57045.7
57137.1
57246.5
57384.8
57557.6
57790.8
58096.6
58539.8
58967.1
59977
61694.4
65444.6
74907.7
108957
202669
502671
1.76019e+06
1.65935e+07
4754.42
13007.1
22244.4
31403.9
39449.7
45793.7
50447
53537.1
55298.2
56179
56573.3
56732.8
56791.6
56811.8
56818.4
56821
56822.4
56823.7
56825.1
56827
56829.3
56832.3
56836
56840.8
56847
56855.2
56865.8
56880.4
56900
56927.4
56963.8
57012.6
57073.7
57151.7
57247.2
57370.8
57525.9
57735
58010.5
58406.8
58812.3
59809.2
61710.6
66328.4
78553.2
121905
234528
572155
1.88411e+06
1.66997e+07
4755.82
13011.4
22252.8
31417.6
39470.5
45824.1
50503
53595.4
55353.1
56232.8
56626.8
56786
56844.6
56864.7
56871.2
56873.7
56875
56876.2
56877.5
56879.2
56881.4
56884.2
56887.7
56892.3
56898
56905.6
56915.4
56928.5
56945.6
56968.9
56999.3
57040.2
57091.7
57159.5
57243.2
57354
57492.7
57681.3
57930
58294.2
58711.6
59720.6
61939.7
67713.4
83286.8
125077
237503
560169
1.77064e+06
1.19981e+07
4757.1
13015.3
22260.1
31428.7
39486.7
45850
50547.7
53638.8
55390.9
56267.8
56660.4
56819.1
56877.4
56897.3
56903.8
56906.1
56907.4
56908.5
56909.7
56911.4
56913.4
56916
56919.3
56923.7
56929.1
56936.3
56945.4
56957.6
56973.1
56994.1
57020.8
57056.8
57102.1
57162.5
57237.4
57337.3
57462.1
57631.6
57857.4
58195.5
58631.3
59724.2
62377.3
69492.7
88507.7
137754
263225
605768
1.86081e+06
1.22848e+07
4758.36
13019.1
22266.8
31438.6
39500
45875.1
50585.4
53673.3
55419.1
56292.2
56682.9
56840.7
56898.8
56918.5
56924.9
56927.2
56928.4
56929.5
56930.7
56932.3
56934.2
56936.8
56940
56944.2
56949.4
56956.4
56965.1
56976.7
56991.2
57010.7
57035.2
57068.1
57109.1
57164
57232
57323.3
57435.6
57591.8
57794.7
58141.6
58632.9
59827.8
63029.8
71633.3
94169.2
150648
288390
645432
1.89984e+06
1.23027e+07
4759.81
13024
22275.9
31451.3
39515.6
45906.2
50627
53710.2
55449
56317.6
56706.1
56863
56920.7
56940.4
56946.8
56949.2
56950.4
56951.6
56952.8
56954.5
56956.5
56959.2
56962.5
56966.8
56972.1
56979.2
56987.9
56999.4
57013.7
57032.7
57056.2
57087.6
57126.5
57178.3
57242
57328
57433.8
57585
57783.6
58139.5
58913
60813.4
65874
79216.7
112893
194496
392540
931869
2.95528e+06
1.79872e+07
4762.43
13034.3
22295.9
31480.5
39550.6
45963.5
50697.3
53774.3
55505.4
56369.4
56755.8
56911.9
56969.4
56989.1
56995.7
56998.3
56999.8
57001.3
57003
57005.1
57007.6
57010.8
57014.8
57019.8
57025.9
57033.8
57043.5
57055.9
57071.3
57091.2
57115.8
57147.6
57187
57238.1
57301.1
57383.3
57486.4
57627.1
57834.7
58203.7
59046.6
61199.4
66959.2
81876.1
118697
205799
412783
968272
3.02957e+06
1.79872e+07
4769.18
13063.6
22354.5
31567.7
39657.6
46107.5
50862.1
53933.3
55657.5
56517.5
56902
57057.6
57115.2
57135.4
57142.7
57146
57148.5
57151
57153.9
57157.4
57161.6
57166.5
57172.6
57179.9
57188.7
57199.5
57212.6
57228.8
57248.6
57273.1
57303.1
57340.5
57386.3
57443.6
57513.8
57601.8
57711.4
57855.6
58070.3
58457.7
59378.8
61749.2
68021
84022.4
122782
212650
422546
979955
3.04038e+06
1.79872e+07
4789.13
13151.4
22530.8
31831.6
39986.9
46508
51303.1
54374.6
56095.2
56952.6
57336.2
57491.9
57550.5
57572.2
57581.4
57587
57592
57597.4
57603.6
57610.8
57619.3
57629.1
57640.8
57654.3
57670.5
57689.3
57711.9
57738.5
57770.4
57808.2
57853.8
57908
57973.7
58051.8
58146.8
58260
58400.1
58575.3
58831.1
59276.1
60288.8
62862.4
69583.2
86472
126733
218595
430383
988817
3.04841e+06
1.79872e+07
4847.34
13406
23036.9
32583
40928.5
47606.2
52485.9
55577.2
57302.2
58159.7
58543.7
58701.1
58762.8
58788.2
58802.1
58812.9
58824.1
58836.3
58850.6
58866.7
58885.7
58907.1
58932.3
58960.7
58994.3
59032.3
59077.4
59128.6
59189.4
59258.7
59341.3
59435.6
59548.2
59676.7
59830.3
60005.7
60217.5
60468
60811
61355.8
62502.6
65277.8
72343.5
89817.2
130938
223733
436065
994216
3.05237e+06
1.79872e+07
5009.61
14105.1
24403.3
34576
43406.1
50448.2
55501.7
58653.2
60394.4
61255
61641.3
61802.9
61871.2
61904.9
61928.7
61950.7
61975
62002
62033.5
62068.6
62109.8
62155.7
62209.4
62269.3
62339.6
62417.9
62509.9
62612.4
62733.2
62867.7
63026.3
63202.9
63411.1
63642.6
63914.9
64216.7
64572.6
64975
65487.4
66210.7
67554.6
70550.4
77882.2
95668
137093
230012
442164
999929
3.05723e+06
1.79872e+07
5441.76
15935
27892.5
39533.5
49493.4
57304.1
62671.8
65928
67693.1
68556.2
68945.4
69114.5
69195.3
69244.3
69286.8
69329.8
69378.9
69433.4
69497.1
69567.7
69650.2
69741.4
69848.1
69966
70103.7
70255.7
70433.3
70629.1
70858
71109.7
71403.7
71726.3
72102.3
72513.1
72989.9
73508
74106.9
74761.9
75549.5
76546.7
78160.8
81368.9
88782
106341
146974
238316
448354
1.00419e+06
3.05996e+06
1.79872e+07
6564.37
20583.3
36435.7
51300.8
63592.7
72595
78411.5
81786.4
83559.1
84410.9
84798.6
84977.5
85077.5
85150.9
85223.4
85300.4
85389.6
85488.3
85603.6
85730.9
85879.4
86043
86233.7
86443.2
86687.4
86954.9
87266.4
87606.9
88002.9
88434.2
88934.7
89477.6
90105.1
90781.7
91558.7
92390.3
93337.1
94348.5
95516.4
96876.8
98814.5
102187
109409
126013
164398
251895
457256
1.0094e+06
3.06325e+06
1.79872e+07
9512.26
32286.9
56722.1
77935
93786.7
104202
110407
113790
115491
116289
116660
116847
116971
117076
117189
117311
117454
117611
117795
117997
118232
118490
118791
119120
119502
119918
120402
120926
121534
122190
122948
123761
124695
125691
126825
128022
129370
130783
132371
134113
136349
139738
146338
160951
194991
275107
471149
1.01542e+06
3.06544e+06
1.79872e+07
17693.6
61923.5
103688
134535
154098
165397
171479
174550
176016
176691
177017
177203
177349
177487
177641
177810
178008
178226
178480
178758
179083
179437
179851
180298
180820
181384
182039
182742
183558
184429
185434
186501
187722
189008
190466
191985
193684
195434
197369
199399
201810
205001
210541
222169
249684
318123
497941
1.02666e+06
3.06859e+06
1.79872e+07
42756.1
138390
208843
249553
270658
281062
286032
288335
289383
289867
290125
290297
290457
290619
290807
291011
291253
291516
291826
292161
292556
292981
293480
294015
294643
295312
296095
296925
297893
298912
300094
301328
302748
304219
305891
307604
309521
311460
313592
315747
318176
320995
325241
333332
352678
404748
557557
1.05367e+06
3.07378e+06
1.79872e+07
131235
342309
447383
490940
508373
515465
518429
519695
520265
520550
520741
520898
521068
521246
521459
521688
521962
522255
522606
522979
523425
523896
524459
525050
525755
526491
527366
528274
529350
530457
531761
533092
534647
536218
538032
539843
541897
543921
546167
548357
550760
553231
556378
561282
572419
604866
716288
1.14346e+06
3.09514e+06
1.79872e+07
504856
937995
1.05755e+06
1.08873e+06
1.09759e+06
1.10044e+06
1.1015e+06
1.10195e+06
1.1022e+06
1.10237e+06
1.10254e+06
1.10271e+06
1.10291e+06
1.10312e+06
1.10339e+06
1.10366e+06
1.104e+06
1.10435e+06
1.10478e+06
1.10522e+06
1.10577e+06
1.10633e+06
1.10702e+06
1.10772e+06
1.10858e+06
1.10945e+06
1.11052e+06
1.11158e+06
1.11289e+06
1.11418e+06
1.11576e+06
1.1173e+06
1.11917e+06
1.12098e+06
1.12315e+06
1.12522e+06
1.12765e+06
1.12995e+06
1.13258e+06
1.13503e+06
1.13775e+06
1.14027e+06
1.14309e+06
1.14618e+06
1.15142e+06
1.16553e+06
1.22349e+06
1.51537e+06
3.23506e+06
1.79872e+07
2.45169e+06
3.14927e+06
3.2252e+06
3.23486e+06
3.2366e+06
3.23711e+06
3.2374e+06
3.23761e+06
3.23787e+06
3.23812e+06
3.23845e+06
3.23877e+06
3.23921e+06
3.23963e+06
3.2402e+06
3.24075e+06
3.24148e+06
3.24217e+06
3.24311e+06
3.24399e+06
3.24517e+06
3.24627e+06
3.24777e+06
3.24914e+06
3.251e+06
3.25269e+06
3.255e+06
3.25706e+06
3.25988e+06
3.26237e+06
3.26576e+06
3.26873e+06
3.27272e+06
3.27618e+06
3.28077e+06
3.28472e+06
3.28982e+06
3.29419e+06
3.29964e+06
3.30427e+06
3.3098e+06
3.31444e+06
3.31971e+06
3.32408e+06
3.32894e+06
3.33424e+06
3.34925e+06
3.45057e+06
4.48379e+06
1.79872e+07
1.87595e+07
1.87595e+07
1.87595e+07
1.87595e+07
1.87595e+07
1.87595e+07
1.87595e+07
1.87595e+07
1.87595e+07
1.87595e+07
1.87595e+07
1.87595e+07
1.87595e+07
1.87595e+07
1.87595e+07
1.87595e+07
1.87595e+07
1.87595e+07
1.87595e+07
1.87595e+07
1.87595e+07
1.87595e+07
1.87595e+07
1.87595e+07
1.87595e+07
1.87595e+07
1.87595e+07
1.87595e+07
1.87595e+07
1.87595e+07
1.87595e+07
1.87595e+07
1.87595e+07
1.87595e+07
1.87595e+07
1.87595e+07
1.87595e+07
1.87595e+07
1.87595e+07
1.87595e+07
1.87595e+07
1.87595e+07
1.87595e+07
1.87595e+07
1.87595e+07
1.87595e+07
1.87595e+07
1.87595e+07
1.87595e+07
1.87595e+07
7.11924e+07
6.84481e+07
6.77579e+07
6.76772e+07
6.76672e+07
6.76661e+07
6.7666e+07
6.7666e+07
6.7666e+07
6.7666e+07
6.7666e+07
6.7666e+07
6.7666e+07
6.7666e+07
6.7666e+07
6.76659e+07
6.76645e+07
6.76541e+07
6.7571e+07
6.68126e+07
1.09261e+06
2.16906e+06
2.86329e+06
3.14486e+06
3.25256e+06
3.29514e+06
3.31244e+06
3.31956e+06
3.3225e+06
3.32371e+06
3.32421e+06
3.32442e+06
3.3245e+06
3.32453e+06
3.32455e+06
3.32454e+06
3.32447e+06
3.32385e+06
3.3192e+06
3.2895e+06
1.04395e+07
1.22186e+07
1.19772e+07
1.19407e+07
1.19433e+07
1.19476e+07
1.19499e+07
1.1951e+07
1.19514e+07
1.19516e+07
1.19517e+07
1.19517e+07
1.19517e+07
1.19517e+07
1.19517e+07
1.19516e+07
1.19506e+07
1.19426e+07
1.18803e+07
1.13906e+07
1.87595e+07
1.87595e+07
1.87595e+07
1.87595e+07
1.87595e+07
1.87595e+07
1.87595e+07
1.87595e+07
1.87595e+07
1.87595e+07
1.87595e+07
1.87595e+07
1.87595e+07
1.87595e+07
1.87595e+07
1.87595e+07
1.87595e+07
1.87595e+07
1.87595e+07
1.87595e+07
1.87595e+07
1.87595e+07
1.87595e+07
1.87595e+07
1.87595e+07
1.87595e+07
1.87595e+07
1.87595e+07
1.87595e+07
1.87595e+07
1.87595e+07
1.87595e+07
1.87595e+07
1.87595e+07
1.87595e+07
1.87595e+07
1.87595e+07
1.87595e+07
1.87595e+07
1.87595e+07
1.87595e+07
1.87595e+07
1.87595e+07
1.87595e+07
1.87595e+07
1.87595e+07
1.87595e+07
1.87595e+07
1.87595e+07
1.87595e+07
1.87595e+07
1.87595e+07
1.87595e+07
1.87595e+07
1.87595e+07
1.87595e+07
1.87595e+07
1.87595e+07
1.87595e+07
1.87595e+07
1.87595e+07
1.87595e+07
1.87595e+07
1.87595e+07
1.87595e+07
1.87595e+07
1.87595e+07
1.87595e+07
1.87595e+07
1.87595e+07
1.87595e+07
1.87595e+07
1.87595e+07
1.87595e+07
1.87595e+07
1.87595e+07
1.87595e+07
1.87595e+07
1.87595e+07
1.87595e+07
1.87595e+07
1.87595e+07
1.87595e+07
1.87595e+07
1.87595e+07
1.87595e+07
1.87595e+07
1.87595e+07
1.87595e+07
1.87595e+07
1.87595e+07
1.87595e+07
1.87595e+07
1.87595e+07
1.87595e+07
1.87595e+07
1.87595e+07
1.87595e+07
1.87595e+07
1.87595e+07
1.79872e+07
4.48056e+06
3.34691e+06
3.22701e+06
3.21106e+06
3.20883e+06
3.20916e+06
3.21019e+06
3.21151e+06
3.21297e+06
3.21448e+06
3.216e+06
3.2175e+06
3.21896e+06
3.22035e+06
3.22169e+06
3.22294e+06
3.22411e+06
3.2252e+06
3.22621e+06
3.22712e+06
3.22798e+06
3.22874e+06
3.22944e+06
3.23007e+06
3.23065e+06
3.23115e+06
3.23162e+06
3.23202e+06
3.23241e+06
3.23272e+06
3.23303e+06
3.23327e+06
3.23353e+06
3.23371e+06
3.23392e+06
3.23406e+06
3.23423e+06
3.23433e+06
3.23448e+06
3.23455e+06
3.23466e+06
3.23473e+06
3.23481e+06
3.23487e+06
3.23491e+06
3.235e+06
3.23499e+06
3.2351e+06
3.23504e+06
3.23519e+06
3.23507e+06
3.23525e+06
3.2351e+06
3.23532e+06
3.23514e+06
3.23539e+06
3.23518e+06
3.23542e+06
3.23521e+06
3.23543e+06
3.23524e+06
3.23542e+06
3.23526e+06
3.23541e+06
3.23527e+06
3.23539e+06
3.23529e+06
3.23538e+06
3.2353e+06
3.23537e+06
3.23531e+06
3.23536e+06
3.23531e+06
3.23535e+06
3.23532e+06
3.23535e+06
3.23532e+06
3.23535e+06
3.23532e+06
3.23534e+06
3.23533e+06
3.23534e+06
3.23533e+06
3.23534e+06
3.23533e+06
3.23534e+06
3.23533e+06
3.23534e+06
3.23533e+06
3.23534e+06
3.23533e+06
3.23534e+06
3.23533e+06
3.23534e+06
3.23533e+06
3.23534e+06
3.23533e+06
3.23534e+06
3.23533e+06
1.79872e+07
3.34101e+06
1.51479e+06
1.17622e+06
1.09897e+06
1.07829e+06
1.07228e+06
1.07097e+06
1.07147e+06
1.07279e+06
1.07448e+06
1.07632e+06
1.0782e+06
1.08006e+06
1.08184e+06
1.08354e+06
1.08514e+06
1.08664e+06
1.08803e+06
1.08933e+06
1.09051e+06
1.0916e+06
1.09258e+06
1.09348e+06
1.09428e+06
1.09502e+06
1.09567e+06
1.09628e+06
1.0968e+06
1.09728e+06
1.09769e+06
1.09809e+06
1.09841e+06
1.09873e+06
1.09897e+06
1.09923e+06
1.09942e+06
1.09963e+06
1.09977e+06
1.09994e+06
1.10005e+06
1.10018e+06
1.10027e+06
1.10037e+06
1.10045e+06
1.10051e+06
1.1006e+06
1.10062e+06
1.10073e+06
1.1007e+06
1.10083e+06
1.10075e+06
1.1009e+06
1.1008e+06
1.10095e+06
1.10084e+06
1.10099e+06
1.10088e+06
1.10102e+06
1.10091e+06
1.10103e+06
1.10094e+06
1.10104e+06
1.10097e+06
1.10104e+06
1.10098e+06
1.10104e+06
1.101e+06
1.10105e+06
1.10101e+06
1.10105e+06
1.10102e+06
1.10105e+06
1.10103e+06
1.10105e+06
1.10103e+06
1.10105e+06
1.10104e+06
1.10105e+06
1.10104e+06
1.10105e+06
1.10104e+06
1.10105e+06
1.10105e+06
1.10105e+06
1.10105e+06
1.10105e+06
1.10105e+06
1.10105e+06
1.10105e+06
1.10105e+06
1.10105e+06
1.10105e+06
1.10105e+06
1.10105e+06
1.10105e+06
1.10105e+06
1.10105e+06
1.10105e+06
1.10105e+06
1.79872e+07
3.22808e+06
1.19398e+06
717694
573433
522191
501847
493553
490679
490527
491536
493170
495040
496963
498846
500653
502361
503966
505458
506843
508113
509283
510344
511316
512189
512986
513694
514342
514910
515433
515885
516306
516662
517000
517277
517548
517763
517981
518146
518320
518448
518586
518688
518793
518881
518953
519040
519076
519171
519168
519269
519234
519344
519287
519397
519332
519434
519370
519461
519403
519479
519431
519493
519453
519503
519471
519511
519485
519516
519497
519521
519506
519524
519513
519527
519518
519529
519523
519531
519526
519532
519529
519533
519531
519534
519532
519535
519533
519536
519534
519536
519535
519537
519536
519537
519536
519537
519537
519537
519537
1.79872e+07
3.21816e+06
1.13115e+06
596586
409081
330264
293274
275274
266995
263933
263631
264501
265972
267662
269383
271059
272655
274162
275569
276879
278086
279199
280213
281143
281981
282746
283430
284054
284605
285109
285550
285955
286303
286628
286902
287161
287375
287582
287748
287913
288042
288173
288274
288376
288461
288534
288612
288657
288737
288751
288833
288819
288902
288871
288952
288915
288989
288951
289015
288982
289035
289007
289050
289027
289062
289044
289071
289057
289078
289067
289084
289075
289088
289081
289091
289086
289094
289090
289096
289093
289098
289096
289099
289097
289100
289099
289101
289100
289101
289101
289102
289102
289102
289102
289103
289103
289103
289103
289104
289103
1.79872e+07
3.21961e+06
1.11889e+06
563119
353865
256945
206561
179494
165554
159177
156961
156873
157615
158794
160102
161416
162684
163891
165024
166085
167068
167978
168811
169577
170271
170904
171474
171993
172454
172875
173245
173584
173879
174151
174383
174600
174782
174956
175097
175236
175346
175456
175542
175628
175699
175763
175827
175869
175932
175950
176014
176009
176071
176053
176113
176090
176143
176121
176166
176146
176184
176167
176197
176184
176208
176197
176216
176208
176222
176216
176228
176223
176232
176228
176235
176232
176237
176235
176239
176238
176241
176239
176242
176241
176243
176242
176243
176243
176244
176244
176245
176244
176245
176245
176245
176245
176246
176246
176246
176246
1.79872e+07
3.22608e+06
1.11844e+06
555072
336073
229238
170240
136583
118118
108862
104870
103635
103692
104244
105033
105882
106723
107534
108302
109025
109700
110329
110907
111441
111927
112372
112774
113141
113469
113768
114032
114274
114485
114679
114846
115002
115133
115257
115359
115459
115538
115618
115680
115742
115793
115840
115884
115917
115961
115976
116021
116019
116061
116051
116091
116077
116113
116100
116130
116118
116143
116133
116153
116145
116160
116154
116167
116162
116171
116168
116175
116173
116178
116176
116181
116179
116182
116181
116184
116183
116185
116184
116186
116185
116187
116186
116187
116187
116188
116187
116188
116188
116188
116188
116189
116189
116189
116189
116189
116189
1.79872e+07
3.2317e+06
1.12075e+06
554523
331741
220281
156500
118739
97192.1
85826.5
80453.4
78293.7
77694.6
77767.9
78093.9
78529.6
78989.6
79443.9
79880.8
80296.8
80688.5
81055.8
81396.7
81712.9
82002.7
82269.4
82511.3
82732.7
82931.4
83113
83274.2
83421.6
83550.9
83669.9
83772.5
83868.2
83948.9
84025.6
84088.6
84150.1
84199
84248.3
84286.4
84325.5
84356.1
84386.2
84413
84434.1
84460.7
84471.3
84499.5
84497.6
84523.9
84517.1
84541.9
84533.6
84555.3
84547.4
84565.6
84558.8
84573.5
84568.1
84579.8
84575.5
84584.7
84581.4
84588.6
84586.1
84591.6
84589.7
84594
84592.6
84595.9
84594.9
84597.4
84596.6
84598.5
84598
84599.5
84599
84600.2
84599.9
84600.7
84600.5
84601.2
84601
84601.5
84601.4
84601.8
84601.8
84602.1
84602
84602.3
84602.2
84602.4
84602.4
84602.6
84602.6
84602.7
84602.7
1.79872e+07
3.24249e+06
1.12552e+06
557586
332961
219214
153019
112860
89245.3
76369.3
69976.1
67132.2
66048.6
65754.6
65783.1
65925.9