/*--------------------------------*- C++ -*----------------------------------*\
| =========                 |                                                 |
| \\      /  F ield         | foam-extend: Open Source CFD                    |
|  \\    /   O peration     | Version:     4.0                                |
|   \\  /    A nd           | Web:         http://www.foam-extend.org         |
|    \\/     M anipulation  |                                                 |
\*---------------------------------------------------------------------------*/
FoamFile
{
    version     2.0;
    format      ascii;
    class       volScalarField;
    location    "6e-05";
    object      pd;
}
// * * * * * * * * * * * * * * * * * * * * * * * * * * * * * * * * * * * * * //

dimensions      [1 -1 -2 0 0 0 0];

internalField   nonuniform List<scalar> 
28770
(
1.0226e+07
1.01103e+07
1.03409e+07
9.99667e+06
1.04523e+07
9.88801e+06
1.05573e+07
9.78691e+06
1.06535e+07
9.69577e+06
1.07385e+07
9.61663e+06
1.08106e+07
9.55117e+06
1.08681e+07
9.50058e+06
1.09102e+07
9.46561e+06
1.09363e+07
9.44648e+06
1.09463e+07
9.44291e+06
1.09408e+07
9.45409e+06
1.09207e+07
9.47877e+06
1.08874e+07
9.51522e+06
1.08426e+07
9.56138e+06
1.07884e+07
9.61489e+06
1.0727e+07
9.67332e+06
1.06608e+07
9.73429e+06
1.05919e+07
9.79573e+06
1.0522e+07
9.85613e+06
1.04527e+07
9.91472e+06
1.03849e+07
9.97146e+06
1.03194e+07
1.0027e+07
1.02564e+07
1.00822e+07
1.01961e+07
1.01383e+07
1.02267e+07
1.0111e+07
1.03417e+07
9.99758e+06
1.04531e+07
9.88914e+06
1.05583e+07
9.78836e+06
1.06548e+07
9.69765e+06
1.07402e+07
9.61908e+06
1.08128e+07
9.55434e+06
1.0871e+07
9.5047e+06
1.09141e+07
9.47095e+06
1.09414e+07
9.45339e+06
1.0953e+07
9.45184e+06
1.09495e+07
9.46564e+06
1.09321e+07
9.4937e+06
1.09023e+07
9.53455e+06
1.08621e+07
9.58639e+06
1.0814e+07
9.64723e+06
1.07605e+07
9.71498e+06
1.07045e+07
9.78761e+06
1.06484e+07
9.8632e+06
1.0594e+07
9.94004e+06
1.05422e+07
1.00165e+07
1.0493e+07
1.00911e+07
1.0445e+07
1.01623e+07
1.03965e+07
1.02288e+07
1.03454e+07
1.02898e+07
1.02253e+07
1.01096e+07
1.03401e+07
9.99596e+06
1.04513e+07
9.8872e+06
1.0556e+07
9.78593e+06
1.06517e+07
9.69454e+06
1.07362e+07
9.61507e+06
1.08074e+07
9.54915e+06
1.0864e+07
9.49799e+06
1.09048e+07
9.46225e+06
1.09292e+07
9.44212e+06
1.09371e+07
9.4372e+06
1.09289e+07
9.44658e+06
1.09053e+07
9.46881e+06
1.08676e+07
9.50191e+06
1.08173e+07
9.54347e+06
1.07561e+07
9.59073e+06
1.06861e+07
9.6407e+06
1.06092e+07
9.69053e+06
1.05272e+07
9.7378e+06
1.04421e+07
9.7811e+06
1.03558e+07
9.82043e+06
1.02703e+07
9.85745e+06
1.01882e+07
9.89506e+06
1.0112e+07
9.93678e+06
1.00441e+07
9.9858e+06
1.02274e+07
1.01119e+07
1.03422e+07
9.99865e+06
1.04537e+07
9.89055e+06
1.05589e+07
9.79023e+06
1.06555e+07
9.70011e+06
1.07411e+07
9.6223e+06
1.0814e+07
9.55855e+06
1.08726e+07
9.51017e+06
1.09162e+07
9.47802e+06
1.09441e+07
9.46249e+06
1.09567e+07
9.46351e+06
1.09545e+07
9.48056e+06
1.09387e+07
9.51273e+06
1.09113e+07
9.55871e+06
1.08744e+07
9.61696e+06
1.0831e+07
9.68576e+06
1.07842e+07
9.7633e+06
1.07374e+07
9.84781e+06
1.06936e+07
9.93755e+06
1.06551e+07
1.00307e+07
1.06224e+07
1.01249e+07
1.05941e+07
1.02171e+07
1.05667e+07
1.03037e+07
1.05359e+07
1.03808e+07
1.04967e+07
1.04455e+07
1.02246e+07
1.0109e+07
1.03392e+07
9.99547e+06
1.04501e+07
9.88673e+06
1.05544e+07
9.78545e+06
1.06495e+07
9.694e+06
1.07332e+07
9.61443e+06
1.08035e+07
9.54839e+06
1.08588e+07
9.49703e+06
1.0898e+07
9.46105e+06
1.09204e+07
9.44055e+06
1.09258e+07
9.4351e+06
1.09143e+07
9.44367e+06
1.08868e+07
9.46464e+06
1.08441e+07
9.49579e+06
1.07877e+07
9.53431e+06
1.07191e+07
9.5769e+06
1.064e+07
9.61988e+06
1.05521e+07
9.65955e+06
1.04571e+07
9.69274e+06
1.03567e+07
9.71768e+06
1.02531e+07
9.73506e+06
1.01493e+07
9.74851e+06
1.00497e+07
9.76388e+06
9.95962e+06
9.788e+06
9.88421e+06
9.82695e+06
1.0228e+07
1.01127e+07
1.03427e+07
9.99985e+06
1.0454e+07
9.89219e+06
1.05591e+07
9.79244e+06
1.06556e+07
9.70305e+06
1.07412e+07
9.62618e+06
1.08141e+07
9.56362e+06
1.08728e+07
9.51675e+06
1.09164e+07
9.4865e+06
1.09444e+07
9.47337e+06
1.09571e+07
9.4774e+06
1.09552e+07
9.49818e+06
1.09399e+07
9.53494e+06
1.09133e+07
9.58656e+06
1.0878e+07
9.65165e+06
1.08373e+07
9.72868e+06
1.07952e+07
9.81609e+06
1.07558e+07
9.9124e+06
1.07236e+07
1.00162e+07
1.07017e+07
1.01259e+07
1.06906e+07
1.02388e+07
1.06873e+07
1.03503e+07
1.06858e+07
1.04543e+07
1.06781e+07
1.05433e+07
1.06554e+07
1.06112e+07
1.02239e+07
1.01086e+07
1.03383e+07
9.9952e+06
1.04487e+07
9.88661e+06
1.05525e+07
9.78545e+06
1.0647e+07
9.69414e+06
1.07299e+07
9.61473e+06
1.0799e+07
9.54887e+06
1.08529e+07
9.49775e+06
1.08903e+07
9.46206e+06
1.09103e+07
9.44191e+06
1.09128e+07
9.43683e+06
1.08978e+07
9.44575e+06
1.08659e+07
9.46692e+06
1.08179e+07
9.49788e+06
1.07551e+07
9.53547e+06
1.06789e+07
9.57573e+06
1.05907e+07
9.61405e+06
1.0492e+07
9.6454e+06
1.03841e+07
9.66505e+06
1.02683e+07
9.66998e+06
1.01466e+07
9.66106e+06
1.00224e+07
9.64459e+06
9.90223e+06
9.63046e+06
9.79486e+06
9.63038e+06
9.71012e+06
9.65498e+06
1.02285e+07
1.01136e+07
1.0343e+07
1.00011e+07
1.0454e+07
9.894e+06
1.0559e+07
9.7949e+06
1.06552e+07
9.70635e+06
1.07406e+07
9.63054e+06
1.08132e+07
9.56933e+06
1.08715e+07
9.52416e+06
1.09147e+07
9.49606e+06
1.09422e+07
9.4856e+06
1.09542e+07
9.49294e+06
1.09514e+07
9.5178e+06
1.09352e+07
9.55952e+06
1.09077e+07
9.61707e+06
1.08717e+07
9.68919e+06
1.08311e+07
9.77444e+06
1.07905e+07
9.87141e+06
1.07557e+07
9.97893e+06
1.07331e+07
1.00962e+07
1.07281e+07
1.02227e+07
1.07426e+07
1.03564e+07
1.07707e+07
1.04911e+07
1.08034e+07
1.06172e+07
1.08277e+07
1.07223e+07
1.08286e+07
1.07947e+07
1.02233e+07
1.01083e+07
1.03373e+07
9.99515e+06
1.04473e+07
9.88681e+06
1.05505e+07
9.78592e+06
1.06443e+07
9.69492e+06
1.07262e+07
9.6159e+06
1.07941e+07
9.55055e+06
1.08464e+07
9.50008e+06
1.08818e+07
9.46523e+06
1.08994e+07
9.44616e+06
1.08988e+07
9.44244e+06
1.088e+07
9.45299e+06
1.08435e+07
9.47603e+06
1.079e+07
9.50899e+06
1.07207e+07
9.54836e+06
1.06369e+07
9.58959e+06
1.054e+07
9.6269e+06
1.04312e+07
9.65336e+06
1.03114e+07
9.6614e+06
1.01807e+07
9.64476e+06
1.00397e+07
9.60297e+06
9.89154e+06
9.5468e+06
9.74441e+06
9.49164e+06
9.61246e+06
9.45678e+06
9.51339e+06
9.46066e+06
1.0229e+07
1.01145e+07
1.03431e+07
1.00025e+07
1.04538e+07
9.89591e+06
1.05584e+07
9.79753e+06
1.06544e+07
9.70989e+06
1.07393e+07
9.63523e+06
1.08113e+07
9.57547e+06
1.0869e+07
9.53213e+06
1.09112e+07
9.50632e+06
1.09375e+07
9.49873e+06
1.0948e+07
9.5096e+06
1.09432e+07
9.53877e+06
1.09246e+07
9.58568e+06
1.08941e+07
9.64937e+06
1.08547e+07
9.72858e+06
1.08105e+07
9.82183e+06
1.07671e+07
9.92765e+06
1.07319e+07
1.0045e+07
1.07145e+07
1.0174e+07
1.07256e+07
1.03166e+07
1.07718e+07
1.04744e+07
1.08406e+07
1.06385e+07
1.092e+07
1.07962e+07
1.09908e+07
1.09266e+07
1.10268e+07
1.10073e+07
1.02227e+07
1.01081e+07
1.03363e+07
9.99529e+06
1.04459e+07
9.88729e+06
1.05484e+07
9.78679e+06
1.06414e+07
9.69626e+06
1.07223e+07
9.61784e+06
1.0789e+07
9.55327e+06
1.08396e+07
9.50384e+06
1.0873e+07
9.47035e+06
1.0888e+07
9.45307e+06
1.08842e+07
9.45167e+06
1.08616e+07
9.46518e+06
1.08203e+07
9.49192e+06
1.07613e+07
9.52934e+06
1.06854e+07
9.57384e+06
1.05943e+07
9.62044e+06
1.04893e+07
9.66229e+06
1.03718e+07
9.69008e+06
1.02421e+07
9.69166e+06
1.00988e+07
9.65339e+06
9.93837e+06
9.56829e+06
9.7611e+06
9.45786e+06
9.57631e+06
9.34351e+06
9.40531e+06
9.25632e+06
9.28091e+06
9.22938e+06
1.02294e+07
1.01153e+07
1.03431e+07
1.00038e+07
1.04534e+07
9.89784e+06
1.05576e+07
9.80021e+06
1.06531e+07
9.71351e+06
1.07374e+07
9.64004e+06
1.08087e+07
9.58177e+06
1.08653e+07
9.54033e+06
1.09062e+07
9.51689e+06
1.09308e+07
9.51225e+06
1.09389e+07
9.52678e+06
1.09311e+07
9.56042e+06
1.09084e+07
9.61269e+06
1.08727e+07
9.68269e+06
1.08268e+07
9.76907e+06
1.07748e+07
9.87011e+06
1.07225e+07
9.98381e+06
1.06787e+07
1.01086e+07
1.0657e+07
1.02448e+07
1.06787e+07
1.03988e+07
1.07689e+07
1.05857e+07
1.08898e+07
1.0788e+07
1.10339e+07
1.09945e+07
1.11755e+07
1.1169e+07
1.12663e+07
1.12673e+07
1.02223e+07
1.0108e+07
1.03354e+07
9.99558e+06
1.04444e+07
9.88798e+06
1.05464e+07
9.78796e+06
1.06386e+07
9.69802e+06
1.07184e+07
9.62036e+06
1.07838e+07
9.5568e+06
1.08329e+07
9.50872e+06
1.08641e+07
9.47703e+06
1.08766e+07
9.46215e+06
1.08696e+07
9.46394e+06
1.0843e+07
9.48165e+06
1.0797e+07
9.51387e+06
1.07323e+07
9.55834e+06
1.065e+07
9.61172e+06
1.05517e+07
9.66913e+06
1.04393e+07
9.72329e+06
1.03149e+07
9.76301e+06
1.01795e+07
9.77038e+06
1.00297e+07
9.71684e+06
9.85298e+06
9.5682e+06
9.64115e+06
9.38391e+06
9.40172e+06
9.18174e+06
9.16342e+06
9.0115e+06
8.9909e+06
8.93635e+06
1.02297e+07
1.0116e+07
1.0343e+07
1.00051e+07
1.04529e+07
9.89971e+06
1.05566e+07
9.80283e+06
1.06515e+07
9.71706e+06
1.07351e+07
9.64477e+06
1.08055e+07
9.58799e+06
1.08609e+07
9.54842e+06
1.09002e+07
9.52735e+06
1.09225e+07
9.52568e+06
1.09277e+07
9.5439e+06
1.09158e+07
9.58208e+06
1.08877e+07
9.63987e+06
1.08448e+07
9.71641e+06
1.07894e+07
9.81028e+06
1.07248e+07
9.91932e+06
1.06561e+07
1.00405e+07
1.05917e+07
1.01698e+07
1.05465e+07
1.03043e+07
1.05552e+07
1.04516e+07
1.07259e+07
1.06799e+07
1.09055e+07
1.09267e+07
1.11372e+07
1.12129e+07
1.13944e+07
1.14703e+07
1.15757e+07
1.16067e+07
1.02219e+07
1.0108e+07
1.03346e+07
9.99598e+06
1.04431e+07
9.88883e+06
1.05444e+07
9.78933e+06
1.06358e+07
9.70005e+06
1.07147e+07
9.62326e+06
1.07789e+07
9.56085e+06
1.08263e+07
9.51432e+06
1.08556e+07
9.48474e+06
1.08656e+07
9.47272e+06
1.08555e+07
9.47836e+06
1.0825e+07
9.50127e+06
1.07743e+07
9.54048e+06
1.07038e+07
9.59432e+06
1.06149e+07
9.66021e+06
1.05092e+07
9.73424e+06
1.03894e+07
9.81025e+06
1.02596e+07
9.87797e+06
1.01241e+07
9.91756e+06
9.98332e+06
9.8811e+06
9.80264e+06
9.61326e+06
9.55325e+06
9.33996e+06
9.23613e+06
9.0049e+06
8.87302e+06
8.69359e+06
8.60566e+06
8.53809e+06
1.02299e+07
1.01167e+07
1.03428e+07
1.00062e+07
1.04523e+07
9.90146e+06
1.05555e+07
9.80529e+06
1.06498e+07
9.7204e+06
1.07326e+07
9.64922e+06
1.0802e+07
9.59386e+06
1.08561e+07
9.55609e+06
1.08935e+07
9.53729e+06
1.09134e+07
9.53849e+06
1.09151e+07
9.56033e+06
1.08986e+07
9.60304e+06
1.08641e+07
9.66644e+06
1.08126e+07
9.74985e+06
1.07452e+07
9.85192e+06
1.06641e+07
9.97023e+06
1.05723e+07
1.01006e+07
1.04739e+07
1.02351e+07
1.0373e+07
1.03576e+07
1.0266e+07
1.04287e+07
9.92298e+06
1.04232e+07
1.04684e+07
1.05253e+07
1.06409e+07
1.07754e+07
1.0921e+07
1.10382e+07
1.11341e+07
1.11899e+07
1.02215e+07
1.0108e+07
1.03338e+07
9.99643e+06
1.04419e+07
9.88972e+06
1.05426e+07
9.79075e+06
1.06333e+07
9.70216e+06
1.07113e+07
9.62626e+06
1.07743e+07
9.56505e+06
1.08204e+07
9.52017e+06
1.08478e+07
9.49282e+06
1.08554e+07
9.48386e+06
1.08424e+07
9.4937e+06
1.08082e+07
9.52237e+06
1.07528e+07
9.56951e+06
1.06766e+07
9.6343e+06
1.05806e+07
9.71539e+06
1.04665e+07
9.81069e+06
1.03376e+07
9.91715e+06
1.02002e+07
1.00305e+07
1.00673e+07
1.0147e+07
9.97198e+06
1.02749e+07
9.81471e+06
1.03659e+07
1.04059e+07
1.0478e+07
1.06102e+07
1.08118e+07
1.09925e+07
1.11402e+07
1.12525e+07
1.13196e+07
1.02301e+07
1.01173e+07
1.03425e+07
1.00072e+07
1.04516e+07
9.903e+06
1.05544e+07
9.80747e+06
1.06481e+07
9.72338e+06
1.07302e+07
9.6532e+06
1.07985e+07
9.59912e+06
1.08512e+07
9.56297e+06
1.08868e+07
9.54625e+06
1.09042e+07
9.55011e+06
1.09024e+07
9.57535e+06
1.0881e+07
9.62241e+06
1.08399e+07
9.69138e+06
1.0779e+07
9.78193e+06
1.06986e+07
9.89313e+06
1.05992e+07
1.00231e+07
1.04815e+07
1.01682e+07
1.03464e+07
1.03211e+07
1.01948e+07
1.04671e+07
1.00266e+07
1.05774e+07
9.77082e+06
1.02806e+07
1.03026e+07
1.03626e+07
1.05015e+07
1.08551e+07
1.10809e+07
1.12598e+07
1.13968e+07
1.14799e+07
1.02213e+07
1.01081e+07
1.03332e+07
9.99688e+06
1.04408e+07
9.89057e+06
1.05411e+07
9.7921e+06
1.06312e+07
9.70414e+06
1.07084e+07
9.62909e+06
1.07704e+07
9.56903e+06
1.08152e+07
9.52571e+06
1.0841e+07
9.50053e+06
1.08466e+07
9.49455e+06
1.08309e+07
9.50852e+06
1.07933e+07
9.54295e+06
1.07335e+07
9.59814e+06
1.06516e+07
9.67425e+06
1.05481e+07
9.77138e+06
1.04242e+07
9.88961e+06
1.02821e+07
1.00291e+07
1.01265e+07
1.01904e+07
9.96701e+06
1.03744e+07
9.82237e+06
1.05825e+07
9.70098e+06
1.016e+07
1.01539e+07
1.01621e+07
1.01761e+07
1.0027e+07
9.83235e+06
9.70095e+06
9.59364e+06
9.52237e+06
1.02302e+07
1.01177e+07
1.03423e+07
1.00081e+07
1.0451e+07
9.90427e+06
1.05534e+07
9.80928e+06
1.06465e+07
9.72586e+06
1.0728e+07
9.65653e+06
1.07954e+07
9.60352e+06
1.08469e+07
9.56876e+06
1.08808e+07
9.55382e+06
1.08958e+07
9.55998e+06
1.08908e+07
9.5882e+06
1.08649e+07
9.63918e+06
1.08174e+07
9.71334e+06
1.07476e+07
9.81088e+06
1.06546e+07
9.93168e+06
1.05373e+07
1.00752e+07
1.03942e+07
1.024e+07
1.02233e+07
1.04231e+07
1.00225e+07
1.06181e+07
9.79196e+06
1.08126e+07
9.65183e+06
1.00233e+07
9.98389e+06
9.94881e+06
9.91246e+06
1.01361e+07
9.94336e+06
9.74306e+06
9.54732e+06
9.41098e+06
1.02211e+07
1.01082e+07
1.03327e+07
9.99727e+06
1.044e+07
9.8913e+06
1.05399e+07
9.79325e+06
1.06295e+07
9.70583e+06
1.07061e+07
9.63149e+06
1.07673e+07
9.57241e+06
1.08111e+07
9.53044e+06
1.08356e+07
9.50712e+06
1.08394e+07
9.50373e+06
1.08215e+07
9.52134e+06
1.0781e+07
9.56087e+06
1.07174e+07
9.62328e+06
1.06303e+07
9.70967e+06
1.05196e+07
9.82155e+06
1.03852e+07
9.96114e+06
1.02274e+07
1.01317e+07
1.00467e+07
1.03381e+07
9.84456e+06
1.05865e+07
9.62331e+06
1.08821e+07
9.58236e+06
9.87359e+06
9.80411e+06
9.73195e+06
9.66038e+06
1.02643e+07
1.00943e+07
9.82589e+06
9.49112e+06
9.28934e+06
1.02303e+07
1.01181e+07
1.03421e+07
1.00087e+07
1.04506e+07
9.90523e+06
1.05526e+07
9.81064e+06
1.06453e+07
9.72773e+06
1.07262e+07
9.65904e+06
1.07929e+07
9.60685e+06
1.08434e+07
9.57314e+06
1.0876e+07
9.55958e+06
1.08891e+07
9.56753e+06
1.08815e+07
9.59812e+06
1.08519e+07
9.65227e+06
1.07992e+07
9.73076e+06
1.0722e+07
9.83434e+06
1.06184e+07
9.96389e+06
1.0486e+07
1.01206e+07
1.03209e+07
1.03061e+07
1.0118e+07
1.05232e+07
9.87004e+06
1.07766e+07
9.5682e+06
1.10739e+07
9.5274e+06
9.72469e+06
9.62345e+06
9.51246e+06
9.39687e+06
1.04471e+07
1.03625e+07
1.00946e+07
9.34433e+06
9.12681e+06
1.0221e+07
1.01083e+07
1.03324e+07
9.99755e+06
1.04395e+07
9.89183e+06
1.05391e+07
9.79408e+06
1.06283e+07
9.70705e+06
1.07045e+07
9.63324e+06
1.07651e+07
9.57487e+06
1.08082e+07
9.53389e+06
1.08318e+07
9.51194e+06
1.08344e+07
9.51048e+06
1.08149e+07
9.53079e+06
1.07723e+07
9.57415e+06
1.07058e+07
9.64202e+06
1.06147e+07
9.73625e+06
1.0498e+07
9.85951e+06
1.03547e+07
1.00158e+07
1.01825e+07
1.02111e+07
9.97763e+06
1.04546e+07
9.73293e+06
1.07599e+07
9.43488e+06
1.11469e+07
9.46967e+06
9.58183e+06
9.45092e+06
9.29806e+06
9.12427e+06
1.06664e+07
1.0736e+07
1.08715e+07
1.01591e+07
1.05594e+07
1.02303e+07
1.01183e+07
1.0342e+07
1.00091e+07
1.04503e+07
9.90583e+06
1.05521e+07
9.81149e+06
1.06445e+07
9.72889e+06
1.07251e+07
9.66061e+06
1.07913e+07
9.60894e+06
1.08412e+07
9.5759e+06
1.08729e+07
9.5632e+06
1.08848e+07
9.5723e+06
1.08754e+07
9.60443e+06
1.08434e+07
9.66066e+06
1.07873e+07
9.74205e+06
1.07051e+07
9.8498e+06
1.05945e+07
9.98558e+06
1.04518e+07
1.0152e+07
1.02715e+07
1.03534e+07
1.00456e+07
1.05976e+07
9.7614e+06
1.0899e+07
9.39884e+06
1.12842e+07
9.43887e+06
9.45885e+06
9.3005e+06
9.10726e+06
8.87128e+06
1.08719e+07
1.10521e+07
1.12708e+07
1.04017e+07
1.01977e+07
1.02208e+07
1.01082e+07
1.03321e+07
9.99758e+06
1.0439e+07
9.89196e+06
1.05385e+07
9.79433e+06
1.06275e+07
9.70746e+06
1.07034e+07
9.63387e+06
1.07637e+07
9.57582e+06
1.08063e+07
9.53528e+06
1.08293e+07
9.51398e+06
1.08312e+07
9.51344e+06
1.08108e+07
9.5351e+06
1.07669e+07
9.58041e+06
1.06987e+07
9.65113e+06
1.06052e+07
9.74955e+06
1.04851e+07
9.879e+06
1.03365e+07
1.00445e+07
1.01556e+07
1.02539e+07
9.93586e+06
1.05192e+07
9.66456e+06
1.086e+07
9.31749e+06
1.13088e+07
9.42437e+06
9.36366e+06
9.18692e+06
8.96354e+06
8.67819e+06
1.10308e+07
1.12888e+07
1.16081e+07
9.48985e+06
9.35635e+06
1.02304e+07
1.01185e+07
1.03421e+07
1.00094e+07
1.04503e+07
9.90619e+06
1.0552e+07
9.81198e+06
1.06444e+07
9.72953e+06
1.07249e+07
9.66145e+06
1.07911e+07
9.61002e+06
1.08408e+07
9.5773e+06
1.08723e+07
9.565e+06
1.08838e+07
9.57461e+06
1.08739e+07
9.60739e+06
1.08412e+07
9.66448e+06
1.07839e+07
9.74703e+06
1.07001e+07
9.85642e+06
1.0587e+07
9.99458e+06
1.04405e+07
1.01647e+07
1.02546e+07
1.03721e+07
1.00199e+07
1.06268e+07
9.72139e+06
1.09472e+07
9.33386e+06
1.13679e+07
9.45104e+06
9.30521e+06
9.12157e+06
8.88683e+06
8.58086e+06
1.11224e+07
1.14117e+07
1.17804e+07
9.06627e+06
8.8375e+06
1.02208e+07
1.01082e+07
1.03321e+07
9.99758e+06
1.0439e+07
9.89196e+06
1.05385e+07
9.79433e+06
1.06275e+07
9.70746e+06
1.07034e+07
9.63387e+06
1.07637e+07
9.57582e+06
1.08063e+07
9.53528e+06
1.08293e+07
9.51398e+06
1.08312e+07
9.51344e+06
1.08108e+07
9.5351e+06
1.07669e+07
9.58041e+06
1.06987e+07
9.65113e+06
1.06052e+07
9.74955e+06
1.04851e+07
9.879e+06
1.03365e+07
1.00445e+07
1.01556e+07
1.02539e+07
9.93586e+06
1.05192e+07
9.66456e+06
1.086e+07
9.31749e+06
1.13088e+07
9.50257e+06
9.28786e+06
9.1135e+06
8.89135e+06
8.60303e+06
1.1134e+07
1.13935e+07
1.1698e+07
8.9131e+06
8.81427e+06
1.02303e+07
1.01183e+07
1.0342e+07
1.00091e+07
1.04503e+07
9.90583e+06
1.05521e+07
9.81149e+06
1.06445e+07
9.72889e+06
1.07251e+07
9.66061e+06
1.07913e+07
9.60894e+06
1.08412e+07
9.5759e+06
1.08729e+07
9.5632e+06
1.08848e+07
9.5723e+06
1.08754e+07
9.60443e+06
1.08434e+07
9.66066e+06
1.07873e+07
9.74205e+06
1.07051e+07
9.8498e+06
1.05945e+07
9.98558e+06
1.04518e+07
1.0152e+07
1.02715e+07
1.03534e+07
1.00456e+07
1.05976e+07
9.7614e+06
1.0899e+07
9.39884e+06
1.12842e+07
9.58955e+06
9.31277e+06
9.16002e+06
8.97206e+06
8.73639e+06
1.10793e+07
1.12687e+07
1.14298e+07
8.98293e+06
9.18862e+06
1.0221e+07
1.01083e+07
1.03324e+07
9.99755e+06
1.04395e+07
9.89183e+06
1.05391e+07
9.79408e+06
1.06283e+07
9.70705e+06
1.07045e+07
9.63324e+06
1.07651e+07
9.57487e+06
1.08082e+07
9.53389e+06
1.08318e+07
9.51194e+06
1.08344e+07
9.51048e+06
1.08149e+07
9.53079e+06
1.07723e+07
9.57415e+06
1.07058e+07
9.64202e+06
1.06147e+07
9.73625e+06
1.0498e+07
9.85951e+06
1.03547e+07
1.00158e+07
1.01825e+07
1.02111e+07
9.97763e+06
1.04546e+07
9.73293e+06
1.07599e+07
9.43488e+06
1.11469e+07
9.69102e+06
9.36675e+06
9.24574e+06
9.10632e+06
8.94561e+06
1.09938e+07
1.11198e+07
1.115e+07
9.09845e+06
9.30846e+06
1.02303e+07
1.01181e+07
1.03421e+07
1.00087e+07
1.04506e+07
9.90523e+06
1.05526e+07
9.81064e+06
1.06453e+07
9.72773e+06
1.07262e+07
9.65904e+06
1.07929e+07
9.60685e+06
1.08434e+07
9.57314e+06
1.0876e+07
9.55958e+06
1.08891e+07
9.56753e+06
1.08815e+07
9.59812e+06
1.08519e+07
9.65227e+06
1.07992e+07
9.73076e+06
1.0722e+07
9.83434e+06
1.06184e+07
9.96389e+06
1.0486e+07
1.01206e+07
1.03209e+07
1.03061e+07
1.0118e+07
1.05232e+07
9.87004e+06
1.07766e+07
9.5682e+06
1.10739e+07
9.81675e+06
9.44171e+06
9.35432e+06
9.26812e+06
9.18926e+06
1.09011e+07
1.1011e+07
1.10679e+07
1.11684e+07
1.12825e+07
1.02211e+07
1.01082e+07
1.03327e+07
9.99727e+06
1.044e+07
9.8913e+06
1.05399e+07
9.79325e+06
1.06295e+07
9.70583e+06
1.07061e+07
9.63149e+06
1.07673e+07
9.57241e+06
1.08111e+07
9.53044e+06
1.08356e+07
9.50712e+06
1.08394e+07
9.50373e+06
1.08215e+07
9.52134e+06
1.0781e+07
9.56087e+06
1.07174e+07
9.62328e+06
1.06303e+07
9.70967e+06
1.05196e+07
9.82155e+06
1.03852e+07
9.96114e+06
1.02274e+07
1.01317e+07
1.00467e+07
1.03381e+07
9.84456e+06
1.05865e+07
9.62331e+06
1.08821e+07
9.9374e+06
9.5216e+06
9.46611e+06
9.42826e+06
9.42333e+06
1.0803e+07
1.09258e+07
1.10304e+07
1.11302e+07
1.11999e+07
1.02302e+07
1.01177e+07
1.03423e+07
1.00081e+07
1.0451e+07
9.90427e+06
1.05534e+07
9.80928e+06
1.06465e+07
9.72586e+06
1.0728e+07
9.65653e+06
1.07954e+07
9.60352e+06
1.08469e+07
9.56876e+06
1.08808e+07
9.55382e+06
1.08958e+07
9.55998e+06
1.08908e+07
9.5882e+06
1.08649e+07
9.63918e+06
1.08174e+07
9.71334e+06
1.07476e+07
9.81088e+06
1.06546e+07
9.93168e+06
1.05373e+07
1.00752e+07
1.03942e+07
1.024e+07
1.02233e+07
1.04231e+07
1.00225e+07
1.06181e+07
9.79196e+06
1.08126e+07
1.00696e+07
9.59952e+06
9.56462e+06
9.56073e+06
9.61467e+06
1.06938e+07
1.08322e+07
1.09521e+07
1.10524e+07
1.11136e+07
1.02213e+07
1.01081e+07
1.03332e+07
9.99688e+06
1.04408e+07
9.89057e+06
1.05411e+07
9.7921e+06
1.06312e+07
9.70414e+06
1.07084e+07
9.62909e+06
1.07704e+07
9.56903e+06
1.08152e+07
9.52571e+06
1.0841e+07
9.50053e+06
1.08466e+07
9.49455e+06
1.08309e+07
9.50852e+06
1.07933e+07
9.54295e+06
1.07335e+07
9.59814e+06
1.06516e+07
9.67425e+06
1.05481e+07
9.77138e+06
1.04242e+07
9.88961e+06
1.02821e+07
1.00291e+07
1.01265e+07
1.01904e+07
9.96701e+06
1.03744e+07
9.82237e+06
1.05825e+07
1.01748e+07
9.6638e+06
9.63667e+06
9.64084e+06
9.72253e+06
1.05746e+07
1.07303e+07
1.08565e+07
1.09589e+07
1.10229e+07
1.02301e+07
1.01173e+07
1.03425e+07
1.00072e+07
1.04516e+07
9.903e+06
1.05544e+07
9.80747e+06
1.06481e+07
9.72338e+06
1.07302e+07
9.6532e+06
1.07985e+07
9.59912e+06
1.08512e+07
9.56297e+06
1.08868e+07
9.54625e+06
1.09042e+07
9.55011e+06
1.09024e+07
9.57535e+06
1.0881e+07
9.62241e+06
1.08399e+07
9.69138e+06
1.0779e+07
9.78193e+06
1.06986e+07
9.89313e+06
1.05992e+07
1.00231e+07
1.04815e+07
1.01682e+07
1.03464e+07
1.03211e+07
1.01948e+07
1.04671e+07
1.00266e+07
1.05774e+07
1.02858e+07
9.72173e+06
9.68227e+06
9.64999e+06
9.61286e+06
9.4793e+06
9.29141e+06
9.1139e+06
8.96953e+06
8.8808e+06
1.02215e+07
1.0108e+07
1.03338e+07
9.99643e+06
1.04419e+07
9.88972e+06
1.05426e+07
9.79075e+06
1.06333e+07
9.70216e+06
1.07113e+07
9.62626e+06
1.07743e+07
9.56505e+06
1.08204e+07
9.52017e+06
1.08478e+07
9.49282e+06
1.08554e+07
9.48386e+06
1.08424e+07
9.4937e+06
1.08082e+07
9.52237e+06
1.07528e+07
9.56951e+06
1.06766e+07
9.6343e+06
1.05806e+07
9.71539e+06
1.04665e+07
9.81069e+06
1.03376e+07
9.91715e+06
1.02002e+07
1.00305e+07
1.00673e+07
1.0147e+07
9.97198e+06
1.02749e+07
1.03449e+07
9.77415e+06
9.72524e+06
9.66871e+06
9.6018e+06
9.49536e+06
9.36781e+06
9.24369e+06
9.14559e+06
9.08766e+06
1.02299e+07
1.01167e+07
1.03428e+07
1.00062e+07
1.04523e+07
9.90146e+06
1.05555e+07
9.80529e+06
1.06498e+07
9.7204e+06
1.07326e+07
9.64922e+06
1.0802e+07
9.59386e+06
1.08561e+07
9.55609e+06
1.08935e+07
9.53729e+06
1.09134e+07
9.53849e+06
1.09151e+07
9.56033e+06
1.08986e+07
9.60304e+06
1.08641e+07
9.66644e+06
1.08126e+07
9.74985e+06
1.07452e+07
9.85192e+06
1.06641e+07
9.97023e+06
1.05723e+07
1.01006e+07
1.04739e+07
1.02351e+07
1.0373e+07
1.03576e+07
1.0266e+07
1.04287e+07
1.04368e+07
9.83876e+06
9.78036e+06
9.7034e+06
9.63639e+06
9.54278e+06
9.45477e+06
9.365e+06
9.30174e+06
9.26462e+06
1.02219e+07
1.0108e+07
1.03346e+07
9.99598e+06
1.04431e+07
9.88883e+06
1.05444e+07
9.78933e+06
1.06358e+07
9.70005e+06
1.07147e+07
9.62326e+06
1.07789e+07
9.56085e+06
1.08263e+07
9.51432e+06
1.08556e+07
9.48474e+06
1.08656e+07
9.47272e+06
1.08555e+07
9.47836e+06
1.0825e+07
9.50127e+06
1.07743e+07
9.54048e+06
1.07038e+07
9.59432e+06
1.06149e+07
9.66021e+06
1.05092e+07
9.73424e+06
1.03894e+07
9.81025e+06
1.02596e+07
9.87797e+06
1.01241e+07
9.91756e+06
9.98332e+06
9.8811e+06
9.80264e+06
9.61326e+06
9.55325e+06
9.33996e+06
9.23613e+06
9.0049e+06
8.87302e+06
8.69359e+06
8.60566e+06
8.53809e+06
1.02297e+07
1.0116e+07
1.0343e+07
1.00051e+07
1.04529e+07
9.89971e+06
1.05566e+07
9.80283e+06
1.06515e+07
9.71706e+06
1.07351e+07
9.64477e+06
1.08055e+07
9.58799e+06
1.08609e+07
9.54842e+06
1.09002e+07
9.52735e+06
1.09225e+07
9.52568e+06
1.09277e+07
9.5439e+06
1.09158e+07
9.58208e+06
1.08877e+07
9.63987e+06
1.08448e+07
9.71641e+06
1.07894e+07
9.81028e+06
1.07248e+07
9.91932e+06
1.06561e+07
1.00405e+07
1.05917e+07
1.01698e+07
1.05465e+07
1.03043e+07
1.05552e+07
1.04516e+07
1.07259e+07
1.06799e+07
1.09055e+07
1.09267e+07
1.11372e+07
1.12129e+07
1.13944e+07
1.14703e+07
1.15757e+07
1.16067e+07
1.02223e+07
1.0108e+07
1.03354e+07
9.99558e+06
1.04444e+07
9.88798e+06
1.05464e+07
9.78796e+06
1.06386e+07
9.69802e+06
1.07184e+07
9.62036e+06
1.07838e+07
9.5568e+06
1.08329e+07
9.50872e+06
1.08641e+07
9.47703e+06
1.08766e+07
9.46215e+06
1.08696e+07
9.46394e+06
1.0843e+07
9.48165e+06
1.0797e+07
9.51387e+06
1.07323e+07
9.55834e+06
1.065e+07
9.61172e+06
1.05517e+07
9.66913e+06
1.04393e+07
9.72329e+06
1.03149e+07
9.76301e+06
1.01795e+07
9.77038e+06
1.00297e+07
9.71684e+06
9.85298e+06
9.5682e+06
9.64115e+06
9.38391e+06
9.40172e+06
9.18174e+06
9.16342e+06
9.0115e+06
8.9909e+06
8.93635e+06
1.02294e+07
1.01153e+07
1.03431e+07
1.00038e+07
1.04534e+07
9.89784e+06
1.05576e+07
9.80021e+06
1.06531e+07
9.71351e+06
1.07374e+07
9.64004e+06
1.08087e+07
9.58177e+06
1.08653e+07
9.54033e+06
1.09062e+07
9.51689e+06
1.09308e+07
9.51225e+06
1.09389e+07
9.52678e+06
1.09311e+07
9.56042e+06
1.09084e+07
9.61269e+06
1.08727e+07
9.68269e+06
1.08268e+07
9.76907e+06
1.07748e+07
9.87011e+06
1.07225e+07
9.98381e+06
1.06787e+07
1.01086e+07
1.0657e+07
1.02448e+07
1.06787e+07
1.03988e+07
1.07689e+07
1.05857e+07
1.08898e+07
1.0788e+07
1.10339e+07
1.09945e+07
1.11755e+07
1.1169e+07
1.12663e+07
1.12673e+07
1.02227e+07
1.01081e+07
1.03363e+07
9.99529e+06
1.04459e+07
9.88729e+06
1.05484e+07
9.78679e+06
1.06414e+07
9.69626e+06
1.07223e+07
9.61784e+06
1.0789e+07
9.55327e+06
1.08396e+07
9.50384e+06
1.0873e+07
9.47035e+06
1.0888e+07
9.45307e+06
1.08842e+07
9.45167e+06
1.08616e+07
9.46518e+06
1.08203e+07
9.49192e+06
1.07613e+07
9.52934e+06
1.06854e+07
9.57384e+06
1.05943e+07
9.62044e+06
1.04893e+07
9.66229e+06
1.03718e+07
9.69008e+06
1.02421e+07
9.69166e+06
1.00988e+07
9.65339e+06
9.93837e+06
9.56829e+06
9.7611e+06
9.45786e+06
9.57631e+06
9.34351e+06
9.40531e+06
9.25632e+06
9.28091e+06
9.22938e+06
1.0229e+07
1.01145e+07
1.03431e+07
1.00025e+07
1.04538e+07
9.89591e+06
1.05584e+07
9.79753e+06
1.06544e+07
9.70989e+06
1.07393e+07
9.63523e+06
1.08113e+07
9.57547e+06
1.0869e+07
9.53213e+06
1.09112e+07
9.50632e+06
1.09375e+07
9.49873e+06
1.0948e+07
9.5096e+06
1.09432e+07
9.53877e+06
1.09246e+07
9.58568e+06
1.08941e+07
9.64937e+06
1.08547e+07
9.72858e+06
1.08105e+07
9.82183e+06
1.07671e+07
9.92765e+06
1.07319e+07
1.0045e+07
1.07145e+07
1.0174e+07
1.07256e+07
1.03166e+07
1.07718e+07
1.04744e+07
1.08406e+07
1.06385e+07
1.092e+07
1.07962e+07
1.09908e+07
1.09266e+07
1.10268e+07
1.10073e+07
1.02233e+07
1.01083e+07
1.03373e+07
9.99515e+06
1.04473e+07
9.88681e+06
1.05505e+07
9.78592e+06
1.06443e+07
9.69492e+06
1.07262e+07
9.6159e+06
1.07941e+07
9.55055e+06
1.08464e+07
9.50008e+06
1.08818e+07
9.46523e+06
1.08994e+07
9.44616e+06
1.08988e+07
9.44244e+06
1.088e+07
9.45299e+06
1.08435e+07
9.47603e+06
1.079e+07
9.50899e+06
1.07207e+07
9.54836e+06
1.06369e+07
9.58959e+06
1.054e+07
9.6269e+06
1.04312e+07
9.65336e+06
1.03114e+07
9.6614e+06
1.01807e+07
9.64476e+06
1.00397e+07
9.60297e+06
9.89154e+06
9.5468e+06
9.74441e+06
9.49164e+06
9.61246e+06
9.45678e+06
9.51339e+06
9.46066e+06
1.02285e+07
1.01136e+07
1.0343e+07
1.00011e+07
1.0454e+07
9.894e+06
1.0559e+07
9.7949e+06
1.06552e+07
9.70635e+06
1.07406e+07
9.63054e+06
1.08132e+07
9.56933e+06
1.08715e+07
9.52416e+06
1.09147e+07
9.49606e+06
1.09422e+07
9.4856e+06
1.09542e+07
9.49294e+06
1.09514e+07
9.5178e+06
1.09352e+07
9.55952e+06
1.09077e+07
9.61707e+06
1.08717e+07
9.68919e+06
1.08311e+07
9.77444e+06
1.07905e+07
9.87141e+06
1.07557e+07
9.97893e+06
1.07331e+07
1.00962e+07
1.07281e+07
1.02227e+07
1.07426e+07
1.03564e+07
1.07707e+07
1.04911e+07
1.08034e+07
1.06172e+07
1.08277e+07
1.07223e+07
1.08286e+07
1.07947e+07
1.02239e+07
1.01086e+07
1.03383e+07
9.9952e+06
1.04487e+07
9.88661e+06
1.05525e+07
9.78545e+06
1.0647e+07
9.69414e+06
1.07299e+07
9.61473e+06
1.0799e+07
9.54887e+06
1.08529e+07
9.49775e+06
1.08903e+07
9.46206e+06
1.09103e+07
9.44191e+06
1.09128e+07
9.43683e+06
1.08978e+07
9.44575e+06
1.08659e+07
9.46692e+06
1.08179e+07
9.49788e+06
1.07551e+07
9.53547e+06
1.06789e+07
9.57573e+06
1.05907e+07
9.61405e+06
1.0492e+07
9.6454e+06
1.03841e+07
9.66505e+06
1.02683e+07
9.66998e+06
1.01466e+07
9.66106e+06
1.00224e+07
9.64459e+06
9.90223e+06
9.63046e+06
9.79486e+06
9.63038e+06
9.71012e+06
9.65498e+06
1.0228e+07
1.01127e+07
1.03427e+07
9.99985e+06
1.0454e+07
9.89219e+06
1.05591e+07
9.79244e+06
1.06556e+07
9.70305e+06
1.07412e+07
9.62618e+06
1.08141e+07
9.56362e+06
1.08728e+07
9.51675e+06
1.09164e+07
9.4865e+06
1.09444e+07
9.47337e+06
1.09571e+07
9.4774e+06
1.09552e+07
9.49818e+06
1.09399e+07
9.53494e+06
1.09133e+07
9.58656e+06
1.0878e+07
9.65165e+06
1.08373e+07
9.72868e+06
1.07952e+07
9.81609e+06
1.07558e+07
9.9124e+06
1.07236e+07
1.00162e+07
1.07017e+07
1.01259e+07
1.06906e+07
1.02388e+07
1.06873e+07
1.03503e+07
1.06858e+07
1.04543e+07
1.06781e+07
1.05433e+07
1.06554e+07
1.06112e+07
1.02246e+07
1.0109e+07
1.03392e+07
9.99547e+06
1.04501e+07
9.88673e+06
1.05544e+07
9.78545e+06
1.06495e+07
9.694e+06
1.07332e+07
9.61443e+06
1.08035e+07
9.54839e+06
1.08588e+07
9.49703e+06
1.0898e+07
9.46105e+06
1.09204e+07
9.44055e+06
1.09258e+07
9.4351e+06
1.09143e+07
9.44367e+06
1.08868e+07
9.46464e+06
1.08441e+07
9.49579e+06
1.07877e+07
9.53431e+06
1.07191e+07
9.5769e+06
1.064e+07
9.61988e+06
1.05521e+07
9.65955e+06
1.04571e+07
9.69274e+06
1.03567e+07
9.71768e+06
1.02531e+07
9.73506e+06
1.01493e+07
9.74851e+06
1.00497e+07
9.76388e+06
9.95962e+06
9.788e+06
9.88421e+06
9.82695e+06
1.02274e+07
1.01119e+07
1.03422e+07
9.99865e+06
1.04537e+07
9.89055e+06
1.05589e+07
9.79023e+06
1.06555e+07
9.70011e+06
1.07411e+07
9.6223e+06
1.0814e+07
9.55855e+06
1.08726e+07
9.51017e+06
1.09162e+07
9.47802e+06
1.09441e+07
9.46249e+06
1.09567e+07
9.46351e+06
1.09545e+07
9.48056e+06
1.09387e+07
9.51273e+06
1.09113e+07
9.55871e+06
1.08744e+07
9.61696e+06
1.0831e+07
9.68576e+06
1.07842e+07
9.7633e+06
1.07374e+07
9.84781e+06
1.06936e+07
9.93755e+06
1.06551e+07
1.00307e+07
1.06224e+07
1.01249e+07
1.05941e+07
1.02171e+07
1.05667e+07
1.03037e+07
1.05359e+07
1.03808e+07
1.04967e+07
1.04455e+07
1.02253e+07
1.01096e+07
1.03401e+07
9.99596e+06
1.04513e+07
9.8872e+06
1.0556e+07
9.78593e+06
1.06517e+07
9.69454e+06
1.07362e+07
9.61507e+06
1.08074e+07
9.54915e+06
1.0864e+07
9.49799e+06
1.09048e+07
9.46225e+06
1.09292e+07
9.44212e+06
1.09371e+07
9.4372e+06
1.09289e+07
9.44658e+06
1.09053e+07
9.46881e+06
1.08676e+07
9.50191e+06
1.08173e+07
9.54347e+06
1.07561e+07
9.59073e+06
1.06861e+07
9.6407e+06
1.06092e+07
9.69053e+06
1.05272e+07
9.7378e+06
1.04421e+07
9.7811e+06
1.03558e+07
9.82043e+06
1.02703e+07
9.85745e+06
1.01882e+07
9.89506e+06
1.0112e+07
9.93678e+06
1.00441e+07
9.9858e+06
1.02267e+07
1.0111e+07
1.03417e+07