/*--------------------------------*- C++ -*----------------------------------*\
| =========                 |                                                 |
| \\      /  F ield         | foam-extend: Open Source CFD                    |
|  \\    /   O peration     | Version:     4.0                                |
|   \\  /    A nd           | Web:         http://www.foam-extend.org         |
|    \\/     M anipulation  |                                                 |
\*---------------------------------------------------------------------------*/
FoamFile
{
    version     2.0;
    format      ascii;
    class       surfaceScalarField;
    location    "6e-05";
    object      phi;
}
// * * * * * * * * * * * * * * * * * * * * * * * * * * * * * * * * * * * * * //

dimensions      [0 3 -1 0 0 0 0];

internalField   nonuniform List<scalar> 
57362
(
1.46739e-07
1.39287e-10
1.46603e-07
1.41179e-10
1.46448e-07
1.46024e-10
1.46309e-07
1.51826e-10
1.4613e-07
1.61819e-10
1.45979e-07
1.71853e-10
1.45767e-07
1.87616e-10
1.45593e-07
2.02439e-10
1.45337e-07
2.24943e-10
1.45126e-07
2.4537e-10
1.44813e-07
2.7599e-10
1.44549e-07
3.03127e-10
1.44164e-07
3.437e-10
1.43829e-07
3.78988e-10
1.43351e-07
4.31893e-10
1.42921e-07
4.77154e-10
1.42327e-07
5.45402e-10
1.41774e-07
6.02894e-10
1.41034e-07
6.9021e-10
1.40322e-07
7.62673e-10
1.39397e-07
8.73565e-10
1.38484e-07
9.64256e-10
1.3733e-07
1.10404e-09
1.36163e-07
1.21672e-09
1.34723e-07
1.39142e-09
1.33241e-07
1.53033e-09
1.31448e-07
1.74644e-09
1.29578e-07
1.91608e-09
1.27354e-07
2.18004e-09
1.25012e-07
2.38489e-09
1.2227e-07
2.70217e-09
1.19363e-07
2.94615e-09
1.16007e-07
3.31979e-09
1.12437e-07
3.60538e-09
1.08371e-07
4.03414e-09
1.04041e-07
4.36109e-09
9.91769e-08
4.83711e-09
9.40034e-08
5.20059e-09
8.82735e-08
5.70749e-09
8.22007e-08
6.09573e-09
7.55754e-08
6.60765e-09
6.85946e-08
6.99967e-09
6.10992e-08
7.48231e-09
5.3267e-08
7.84725e-09
4.49974e-08
8.26096e-09
3.64474e-08
8.56133e-09
2.7577e-08
8.86597e-09
1.85198e-08
9.06474e-09
9.29274e-09
9.22675e-09
9.2964e-09
1.46726e-07
2.76472e-10
1.46593e-07
2.80241e-10
1.46439e-07
2.89858e-10
1.46303e-07
3.0139e-10
1.46126e-07
3.21228e-10
1.45978e-07
3.41166e-10
1.45768e-07
3.7246e-10
1.45597e-07
4.01915e-10
1.45344e-07
4.46602e-10
1.45136e-07
4.87196e-10
1.44827e-07
5.48008e-10
1.44567e-07
6.01946e-10
1.44187e-07
6.82541e-10
1.43857e-07
7.52692e-10
1.43385e-07
8.57816e-10
1.42961e-07
9.47814e-10
1.42375e-07
1.08347e-09
1.41829e-07
1.19782e-09
1.41097e-07
1.37147e-09
1.40395e-07
1.51564e-09
1.39481e-07
1.73629e-09
1.38578e-07
1.9168e-09
1.37436e-07
2.19514e-09
1.36283e-07
2.41952e-09
1.34857e-07
2.76769e-09
1.3339e-07
3.04442e-09
1.31613e-07
3.47558e-09
1.2976e-07
3.81373e-09
1.27554e-07
4.34099e-09
1.25231e-07
4.7496e-09
1.22506e-07
5.3842e-09
1.19618e-07
5.87124e-09
1.1628e-07
6.61964e-09
1.12728e-07
7.1903e-09
1.08677e-07
8.05021e-09
1.04361e-07
8.70435e-09
9.95069e-08
9.66011e-09
9.43412e-08
1.03886e-08
8.86141e-08
1.14071e-08
8.25398e-08
1.2187e-08
7.59072e-08
1.32162e-08
6.89131e-08
1.40056e-08
6.13978e-08
1.49768e-08
5.35387e-08
1.57129e-08
4.52359e-08
1.65462e-08
3.66463e-08
1.71526e-08
2.77313e-08
1.77666e-08
1.8625e-08
1.81681e-08
9.34613e-09
1.84947e-08
1.86354e-08
1.46745e-07
4.09535e-10
1.46616e-07
4.15122e-10
1.46467e-07
4.2938e-10
1.46335e-07
4.46459e-10
1.46164e-07
4.75869e-10
1.4602e-07
5.05399e-10
1.45817e-07
5.51797e-10
1.45651e-07
5.95427e-10
1.45405e-07
6.61689e-10
1.45205e-07
7.21827e-10
1.44904e-07
8.12015e-10
1.44654e-07
8.91935e-10
1.44283e-07
1.01149e-09
1.43964e-07
1.11546e-09
1.43506e-07
1.27145e-09
1.43096e-07
1.40488e-09
1.42525e-07
1.60625e-09
1.41997e-07
1.77585e-09
1.41285e-07
2.03374e-09
1.40604e-07
2.24769e-09
1.39715e-07
2.57562e-09
1.38839e-07
2.84367e-09
1.37727e-07
3.25765e-09
1.36606e-07
3.59116e-09
1.35216e-07
4.10955e-09
1.33789e-07
4.52132e-09
1.32055e-07
5.16413e-09
1.30247e-07
5.66799e-09
1.28091e-07
6.45542e-09
1.25819e-07
7.06533e-09
1.2315e-07
8.01511e-09
1.20319e-07
8.74365e-09
1.17039e-07
9.86681e-09
1.13544e-07
1.07227e-08
1.09549e-07
1.20176e-08
1.05285e-07
1.30018e-08
1.00476e-07
1.44468e-08
9.53487e-08
1.55472e-08
8.96452e-08
1.70939e-08
8.35829e-08
1.82775e-08
7.69411e-08
1.98472e-08
6.99204e-08
2.10518e-08
6.23536e-08
2.25387e-08
5.44211e-08
2.36686e-08
4.6019e-08
2.49489e-08
3.73074e-08
2.58848e-08
2.82485e-08
2.68315e-08
1.89806e-08
2.74537e-08
9.52728e-09
2.79586e-08
2.81772e-08
1.46751e-07
5.36493e-10
1.46628e-07
5.43821e-10
1.46485e-07
5.62508e-10
1.4636e-07
5.84911e-10
1.46195e-07
6.2346e-10
1.46059e-07
6.622e-10
1.45863e-07
7.23025e-10
1.45706e-07
7.8027e-10
1.4547e-07
8.67158e-10
1.45279e-07
9.46081e-10
1.4499e-07
1.06438e-09
1.44751e-07
1.1693e-09
1.44395e-07
1.32619e-09
1.44091e-07
1.46273e-09
1.43649e-07
1.66755e-09
1.43257e-07
1.84286e-09
1.42707e-07
2.10747e-09
1.42202e-07
2.33044e-09
1.41515e-07
2.66963e-09
1.40861e-07
2.95112e-09
1.40002e-07
3.38292e-09
1.3916e-07
3.73592e-09
1.38084e-07
4.28184e-09
1.37002e-07
4.72151e-09
1.35655e-07
5.40637e-09
1.34273e-07
5.94993e-09
1.32587e-07
6.80105e-09
1.30831e-07
7.46721e-09
1.28728e-07
8.51261e-09
1.26512e-07
9.32048e-09
1.23898e-07
1.05854e-08
1.21124e-07
1.15525e-08
1.17896e-07
1.30537e-08
1.14455e-07
1.4193e-08
1.10506e-07
1.59302e-08
1.06286e-07
1.72449e-08
1.01508e-07
1.91906e-08
9.64049e-08
2.06672e-08
9.07104e-08
2.27566e-08
8.46444e-08
2.43542e-08
7.79811e-08
2.64808e-08
7.09194e-08
2.81176e-08
6.32915e-08
3.01386e-08
5.52753e-08
3.16825e-08
4.67695e-08
3.34284e-08
3.79337e-08
3.47123e-08
2.87344e-08
3.60065e-08
1.93122e-08
3.68622e-08
9.69554e-09
3.75536e-08
3.78545e-08
1.46744e-07
6.55405e-10
1.4663e-07
6.6436e-10
1.46495e-07
6.87215e-10
1.46379e-07
7.14588e-10
1.46224e-07
7.6174e-10
1.46098e-07
8.09078e-10
1.45913e-07
8.8349e-10
1.45768e-07
9.53452e-10
1.45545e-07
1.05977e-09
1.45369e-07
1.15625e-09
1.45096e-07
1.30106e-09
1.44875e-07
1.42936e-09
1.44539e-07
1.62149e-09
1.44257e-07
1.78853e-09
1.4384e-07
2.0395e-09
1.43476e-07
2.2541e-09
1.42958e-07
2.57857e-09
1.42486e-07
2.85172e-09
1.41839e-07
3.26803e-09
1.41228e-07
3.61319e-09
1.40418e-07
4.14382e-09
1.39628e-07
4.57718e-09
1.38612e-07
5.24908e-09
1.37595e-07
5.78966e-09
1.36321e-07
6.63419e-09
1.35017e-07
7.30374e-09
1.33418e-07
8.35588e-09
1.31754e-07
9.17836e-09
1.29752e-07
1.04747e-08
1.27643e-07
1.14749e-08
1.25143e-07
1.30495e-08
1.22487e-07
1.42512e-08
1.19382e-07
1.61286e-08
1.16063e-07
1.75504e-08
1.12234e-07
1.97356e-08
1.0813e-07
2.13853e-08
1.03454e-07
2.38492e-08
9.84404e-08
2.57147e-08
9.28062e-08
2.838e-08
8.67778e-08
3.04154e-08
8.01073e-08
3.31476e-08
7.30032e-08
3.52534e-08
6.52793e-08
3.7866e-08
5.712e-08
3.98727e-08
4.84151e-08
4.21438e-08
3.9329e-08
4.38283e-08
2.98301e-08
4.55221e-08
2.00676e-08
4.66531e-08
1.00811e-08
4.7562e-08
4.79614e-08
1.46769e-07
7.64539e-10
1.46664e-07
7.75002e-10
1.4654e-07
8.01684e-10
1.46434e-07
8.33667e-10
1.46289e-07
8.88721e-10
1.46175e-07
9.4404e-10
1.46003e-07
1.03094e-09
1.45871e-07
1.11272e-09
1.45663e-07
1.23693e-09
1.45503e-07
1.34974e-09
1.45248e-07
1.519e-09
1.45047e-07
1.66908e-09
1.44733e-07
1.8938e-09
1.44475e-07
2.08932e-09
1.44086e-07
2.38309e-09
1.43751e-07
2.63446e-09
1.43266e-07
3.01468e-09
1.42831e-07
3.33492e-09
1.42225e-07
3.82341e-09
1.41659e-07
4.22855e-09
1.40899e-07
4.85226e-09
1.40163e-07
5.36163e-09
1.39208e-07
6.1531e-09
1.38255e-07
6.7896e-09
1.37051e-07
7.78711e-09
1.35823e-07
8.57713e-09
1.34306e-07
9.82402e-09
1.32729e-07
1.07969e-08
1.30817e-07
1.23395e-08
1.28803e-07
1.35262e-08
1.26399e-07
1.54093e-08
1.23842e-07
1.68401e-08
1.20831e-07
1.90985e-08
1.17608e-07
2.07986e-08
1.13861e-07
2.34442e-08
1.09838e-07
2.54275e-08
1.0522e-07
2.84303e-08
1.00257e-07
3.06893e-08
9.46456e-08
3.39565e-08
8.86195e-08
3.64455e-08
8.19219e-08
3.98106e-08
7.47542e-08
4.24173e-08
6.69312e-08
4.56543e-08
5.86296e-08
4.81625e-08
4.97453e-08
5.09933e-08
4.04413e-08
5.31132e-08
3.06943e-08
5.52347e-08
2.06579e-08
5.66641e-08
1.03807e-08
5.78062e-08
5.83121e-08
1.46781e-07
8.62209e-10
1.46688e-07
8.74013e-10
1.46576e-07
9.04148e-10
1.46483e-07
9.40232e-10
1.46352e-07
1.00242e-09
1.46252e-07
1.06484e-09
1.46096e-07
1.16303e-09
1.45981e-07
1.25533e-09
1.45792e-07
1.39572e-09
1.45653e-07
1.52309e-09
1.45421e-07
1.71447e-09
1.45246e-07
1.884e-09
1.44961e-07
2.13826e-09
1.44735e-07
2.35925e-09
1.44381e-07
2.69192e-09
1.44087e-07
2.97626e-09
1.43647e-07
3.40727e-09
1.43262e-07
3.7699e-09
1.42713e-07
4.3244e-09
1.42209e-07
4.78376e-09
1.4152e-07
5.49295e-09
1.40862e-07
6.07146e-09
1.39994e-07
6.97337e-09
1.39137e-07
7.69775e-09
1.38041e-07
8.83758e-09
1.36928e-07
9.73899e-09
1.35542e-07
1.11687e-08
1.34104e-07
1.22823e-08
1.32347e-07
1.40588e-08
1.30495e-07
1.54224e-08
1.28269e-07
1.76028e-08
1.25897e-07
1.92547e-08
1.23081e-07
2.18873e-08
1.20058e-07
2.38618e-08
1.16511e-07
2.69711e-08
1.12684e-07
2.92916e-08
1.08247e-07
3.2855e-08
1.03449e-07
3.55232e-08
9.79587e-08
3.94425e-08
9.20215e-08
4.24188e-08
8.53375e-08
4.64984e-08
7.81289e-08
4.96628e-08
7.01768e-08
5.36188e-08
6.16658e-08
5.67119e-08
5.24761e-08
6.02038e-08
4.2773e-08
6.28558e-08
3.25375e-08
6.54985e-08
2.19343e-08
6.73069e-08
1.10344e-08
6.87404e-08
6.93845e-08
1.46778e-07
9.46956e-10
1.46698e-07
9.59943e-10
1.46599e-07
9.93075e-10
1.4652e-07
1.03278e-09
1.46404e-07
1.10117e-09
1.46319e-07
1.16987e-09
1.4618e-07
1.27787e-09
1.46083e-07
1.37949e-09
1.45914e-07
1.53398e-09
1.45796e-07
1.67426e-09
1.45588e-07
1.885e-09
1.45439e-07
2.07183e-09
1.45183e-07
2.35202e-09
1.44989e-07
2.59573e-09
1.44673e-07
2.96271e-09
1.44418e-07
3.2766e-09
1.44024e-07
3.7527e-09
1.43688e-07
4.15348e-09
1.43195e-07
4.76704e-09
1.42751e-07
5.2755e-09
1.42131e-07
6.06192e-09
1.41546e-07
6.70347e-09
1.40762e-07
7.70634e-09
1.39994e-07
8.51151e-09
1.38998e-07
9.78334e-09
1.37992e-07
1.07881e-08
1.36722e-07
1.23904e-08
1.35408e-07
1.36359e-08
1.33783e-07
1.56376e-08
1.3207e-07
1.7169e-08
1.29987e-07
1.96424e-08
1.27764e-07
2.15065e-08
1.25093e-07
2.45175e-08
1.22218e-07
2.67581e-08
1.18802e-07
3.03484e-08
1.15108e-07
3.29999e-08
1.1077e-07
3.71566e-08
1.06065e-07
4.02337e-08
1.00625e-07
4.48461e-08
9.47138e-08
4.8327e-08
8.80198e-08
5.31541e-08
8.07394e-08
5.69312e-08
7.26607e-08
6.16569e-08
6.3949e-08
6.54019e-08
5.44971e-08
6.96126e-08
4.44681e-08
7.2854e-08
3.38567e-08
7.60647e-08
2.28366e-08
7.82889e-08
1.14925e-08
8.0039e-08
8.08337e-08
1.46808e-07
1.01749e-09
1.46742e-07
1.03145e-09
1.46659e-07
1.06711e-09
1.46595e-07
1.1098e-09
1.46496e-07
1.18342e-09
1.4643e-07
1.2573e-09
1.4631e-07
1.3736e-09
1.46235e-07
1.48291e-09
1.46089e-07
1.64934e-09
1.45997e-07
1.80031e-09
1.45819e-07
2.02747e-09
1.45701e-07
2.22864e-09
1.45482e-07
2.5309e-09
1.45328e-07
2.79353e-09
1.45057e-07
3.18981e-09
1.44852e-07
3.52839e-09
1.44516e-07
4.04318e-09
1.44243e-07
4.47605e-09
1.43822e-07
5.14057e-09
1.43457e-07
5.69062e-09
1.42928e-07
6.5442e-09
1.42443e-07
7.23963e-09
1.41772e-07
8.33109e-09
1.41128e-07
9.20612e-09
1.40272e-07
1.05951e-08
1.39419e-07
1.16905e-08
1.38321e-07
1.34479e-08
1.37193e-07
1.4811e-08
1.35776e-07
1.70186e-08
1.34286e-07
1.87027e-08
1.3245e-07
2.14492e-08
1.30487e-07
2.35112e-08
1.28098e-07
2.68832e-08
1.25515e-07
2.93795e-08
1.22405e-07
3.34432e-08
1.19018e-07
3.64236e-08
1.14977e-07
4.11898e-08
1.10558e-07
4.46894e-08
1.05346e-07
5.00595e-08
9.96281e-08
5.40829e-08
9.3003e-08
5.97904e-08
8.57211e-08
6.42542e-08
7.75121e-08
6.98875e-08
6.85441e-08
7.44152e-08
5.8686e-08
7.95026e-08
4.80859e-08
8.35035e-08
3.67477e-08
8.74442e-08
2.48535e-08
9.02351e-08
1.25309e-08
9.24099e-08
9.34165e-08
1.46823e-07
1.07272e-09
1.46772e-07
1.08747e-09
1.46704e-07
1.12512e-09
1.46657e-07
1.17022e-09
1.46575e-07
1.24795e-09
1.46527e-07
1.32602e-09
1.46427e-07
1.44886e-09
1.46373e-07
1.56441e-09
1.46251e-07
1.74028e-09
1.46184e-07
1.89995e-09
1.46035e-07
2.14016e-09
1.45948e-07
2.35306e-09
1.45765e-07
2.67298e-09
1.45649e-07
2.95116e-09
1.45422e-07
3.37109e-09
1.45265e-07
3.73013e-09
1.44984e-07
4.27648e-09
1.4477e-07
4.73616e-09
1.44418e-07
5.4428e-09
1.44128e-07
6.02797e-09
1.43683e-07
6.93793e-09
1.4329e-07
7.67945e-09
1.42723e-07
8.8467e-09
1.42192e-07
9.78237e-09
1.41463e-07
1.12738e-08
1.40746e-07
1.24492e-08
1.39801e-07
1.43459e-08
1.38834e-07
1.58149e-08
1.37594e-07
1.8213e-08
1.36291e-07
2.00373e-08
1.34653e-07
2.30457e-08
1.32897e-07
2.52926e-08
1.30715e-07
2.90254e-08
1.28349e-07
3.1764e-08
1.25433e-07
3.63219e-08
1.2225e-07
3.96165e-08
1.18359e-07
4.50443e-08
1.141e-07
4.89496e-08
1.08973e-07
5.51494e-08
1.03332e-07
5.97146e-08
9.67654e-08
6.63168e-08
8.94297e-08
7.15697e-08
8.10825e-08
7.8189e-08
7.18502e-08
8.36155e-08
6.16241e-08
8.96772e-08
5.0557e-08
9.45271e-08
3.86716e-08
9.92728e-08
2.61702e-08
1.02684e-07
1.31991e-08
1.05321e-07
1.06557e-07
1.46824e-07
1.11181e-09
1.46791e-07
1.12711e-09
1.4674e-07
1.1662e-09
1.46711e-07
1.21298e-09
1.46648e-07
1.29372e-09
1.46621e-07
1.37471e-09
1.46544e-07
1.50234e-09
1.46514e-07
1.62226e-09
1.46419e-07
1.80507e-09
1.46382e-07
1.97086e-09
1.46266e-07
2.22071e-09
1.46216e-07
2.44192e-09
1.46074e-07
2.77496e-09
1.46005e-07
3.06426e-09
1.4583e-07
3.50193e-09
1.45732e-07
3.87572e-09
1.45516e-07
4.44599e-09
1.45377e-07
4.92526e-09
1.45108e-07
5.66426e-09
1.44911e-07
6.27549e-09
1.44573e-07
7.22943e-09
1.44298e-07
8.00579e-09
1.43866e-07
9.23328e-09
1.43482e-07
1.02158e-08
1.42924e-07
1.17903e-08
1.42392e-07
1.30291e-08
1.41658e-07
1.50417e-08
1.40921e-07
1.6597e-08
1.39943e-07
1.91576e-08
1.38923e-07
2.10998e-08
1.37604e-07
2.43378e-08
1.3619e-07
2.67462e-08
1.34391e-07
3.08046e-08
1.32428e-07
3.37637e-08
1.29955e-07
3.87831e-08
1.27228e-07
4.23775e-08
1.23816e-07
4.84538e-08
1.20033e-07
5.27672e-08
1.15333e-07
5.98563e-08
1.1009e-07
6.49944e-08
1.03689e-07
7.27363e-08
9.64527e-08
7.88498e-08
8.80501e-08
8.66223e-08
7.85741e-08
9.31431e-08
6.78858e-08
1.00409e-07
5.60646e-08
1.06408e-07
4.31474e-08
1.12246e-07
2.93307e-08
1.16567e-07
1.48395e-08
1.19877e-07
1.21465e-07
1.46856e-07
1.13413e-09
1.46838e-07
1.14976e-09
1.46805e-07
1.1897e-09
1.46794e-07
1.23752e-09
1.4675e-07
1.32001e-09
1.46742e-07
1.40283e-09
1.46687e-07
1.53327e-09
1.4668e-07
1.65594e-09
1.46611e-07
1.84288e-09
1.46602e-07
2.01257e-09
1.46518e-07
2.26825e-09
1.46503e-07
2.49482e-09
1.464e-07
2.83598e-09
1.46374e-07
3.13257e-09
1.46249e-07
3.58146e-09
1.46204e-07
3.96515e-09
1.46051e-07
4.55101e-09
1.45978e-07
5.04374e-09
1.45788e-07
5.80455e-09
1.45676e-07
6.43422e-09
1.45436e-07
7.41895e-09
1.45266e-07
8.22078e-09
1.44958e-07
9.49223e-09
1.44706e-07
1.05103e-08
1.443e-07
1.21483e-08
1.43931e-07
1.34372e-08
1.43384e-07
1.55426e-08
1.42847e-07
1.71689e-08
1.42095e-07
1.98671e-08
1.41312e-07
2.19106e-08
1.40256e-07
2.53544e-08
1.39117e-07
2.79071e-08
1.37609e-07
3.22771e-08
1.35947e-07
3.54393e-08
1.33762e-07
4.09354e-08
1.31338e-07
4.48064e-08
1.28145e-07
5.16147e-08
1.24623e-07
5.62856e-08
1.20003e-07
6.44423e-08
1.14933e-07
7.00505e-08
1.08818e-07
7.88103e-08
1.01621e-07
8.60198e-08
9.30996e-08
9.50942e-08
8.32887e-08
1.02911e-07
7.20795e-08
1.11559e-07
5.95931e-08
1.18837e-07
4.58871e-08
1.25882e-07
3.12032e-08
1.3118e-07
1.57875e-08
1.35216e-07
1.37175e-07
1.46873e-07
1.13933e-09
1.46874e-07
1.15505e-09
1.46859e-07
1.19525e-09
1.46867e-07
1.24334e-09
1.46844e-07
1.32638e-09
1.46858e-07
1.40968e-09
1.46826e-07
1.54105e-09
1.46846e-07
1.66446e-09
1.46806e-07
1.85284e-09
1.46829e-07
2.02363e-09
1.4678e-07
2.28145e-09
1.46804e-07
2.50967e-09
1.46747e-07
2.85399e-09
1.4677e-07
3.15301e-09
1.46702e-07
3.60663e-09
1.4672e-07
3.99393e-09
1.46638e-07
4.58689e-09
1.46646e-07
5.08502e-09
1.46548e-07
5.85661e-09
1.46538e-07
6.49446e-09
1.46415e-07
7.49576e-09
1.46376e-07
8.31007e-09
1.46217e-07
9.60721e-09
1.46132e-07
1.06444e-08
1.45917e-07
1.23227e-08
1.45759e-07
1.36412e-08
1.45456e-07
1.581e-08
1.45186e-07
1.74823e-08
1.44742e-07
2.02807e-08
1.44297e-07
2.23953e-08
1.43629e-07
2.59984e-08
1.42912e-07
2.86601e-08
1.41889e-07
3.32833e-08
1.40751e-07
3.66099e-08
1.3917e-07
4.25082e-08
1.37387e-07
4.66195e-08
1.34937e-07
5.40657e-08
1.32178e-07
5.90733e-08
1.28387e-07
6.82444e-08
1.24135e-07
7.43354e-08
1.18246e-07
8.47245e-08
1.1129e-07
9.30189e-08
1.02966e-07
1.03458e-07
9.30814e-08
1.12852e-07
8.15051e-08
1.23191e-07
6.81233e-08
1.3229e-07
5.29935e-08
1.41084e-07
3.63146e-08
1.47943e-07
1.84712e-08
1.53145e-07
1.55736e-07
1.46875e-07
1.12728e-09
1.46893e-07
1.14287e-09
1.46895e-07
1.18269e-09
1.46921e-07
1.23038e-09
1.46918e-07
1.31267e-09
1.46952e-07
1.39529e-09
1.46943e-07
1.52552e-09
1.46986e-07
1.64798e-09
1.46974e-07
1.83482e-09
1.47025e-07
2.00438e-09
1.4701e-07
2.2603e-09
1.4707e-07
2.48703e-09
1.47054e-07
2.82914e-09
1.47122e-07
3.12651e-09
1.47105e-07
3.5778e-09
1.4718e-07
3.96345e-09
1.47165e-07
4.55433e-09
1.47244e-07
5.05116e-09
1.4723e-07
5.82169e-09
1.4731e-07
6.45922e-09
1.47295e-07
7.46185e-09
1.47371e-07
8.27796e-09
1.47348e-07
9.58134e-09
1.4741e-07
1.06245e-08
1.47367e-07
1.23183e-08
1.47396e-07
1.36503e-08
1.4731e-07
1.58514e-08
1.47274e-07
1.75505e-08
1.47103e-07
2.04113e-08
1.46949e-07
2.25755e-08
1.46618e-07
2.62933e-08
1.46254e-07
2.90428e-08
1.45633e-07
3.38727e-08
1.44906e-07
3.73472e-08
1.43765e-07
4.36212e-08
1.42424e-07
4.79624e-08
1.40328e-07
5.61369e-08
1.37973e-07
6.14206e-08
1.33921e-07
7.2271e-08
1.29973e-07
7.82658e-08
1.25185e-07
8.94762e-08
1.1859e-07
9.95795e-08
1.10164e-07
1.11834e-07
9.98356e-08
1.23129e-07
8.74608e-08
1.35499e-07
7.31006e-08
1.46577e-07
5.68245e-08
1.57274e-07
3.89161e-08
1.6576e-07
1.97815e-08
1.7218e-07
1.75415e-07
1.46907e-07
1.09818e-09
1.46943e-07
1.11338e-09
1.46964e-07
1.15226e-09
1.47009e-07
1.19875e-09
1.47026e-07
1.2791e-09
1.47083e-07
1.35966e-09
1.47098e-07
1.48686e-09
1.47167e-07
1.60632e-09
1.47184e-07
1.78889e-09
1.47267e-07
1.95439e-09
1.47288e-07
2.20463e-09
1.47388e-07
2.42609e-09
1.47417e-07
2.76092e-09
1.47535e-07
3.05164e-09
1.47576e-07
3.49386e-09
1.47715e-07
3.87134e-09
1.47773e-07
4.45127e-09
1.47934e-07
4.93835e-09
1.48015e-07
5.69612e-09
1.48201e-07
6.3224e-09
1.48307e-07
7.31102e-09
1.48519e-07
8.11484e-09
1.48654e-07
9.40432e-09
1.4889e-07
1.04352e-08
1.49051e-07
1.21182e-08
1.49306e-07
1.34402e-08
1.49484e-07
1.56393e-08
1.49741e-07
1.73351e-08
1.4991e-07
2.02133e-08
1.50134e-07
2.23886e-08
1.50244e-07
2.61627e-08
1.50367e-07
2.89508e-08
1.50317e-07
3.39099e-08
1.5022e-07
3.74713e-08
1.4983e-07
4.40063e-08
1.49309e-07
4.85062e-08
1.48275e-07
5.71751e-08
1.47042e-07
6.26726e-08
1.4489e-07
7.4435e-08
1.42796e-07
8.03806e-08
1.37741e-07
4.91311e-08
4.54294e-08
1.31286e-07
5.11413e-08
5.49346e-08
1.23826e-07
5.76265e-08
6.17121e-08
1.14081e-07
6.42453e-08
6.8688e-08
1.01908e-07
7.14845e-08
7.62538e-08
8.67724e-08
7.84465e-08
8.33502e-08
6.86217e-08
8.54823e-08
9.00361e-08
4.76326e-08
9.15792e-08
9.52765e-08
2.44307e-08
9.65406e-08
9.89542e-08
9.95625e-08
1.00402e-07
1.46919e-07
1.05238e-09
1.46971e-07
1.06697e-09
1.47009e-07
1.10427e-09
1.47072e-07
1.14892e-09
1.47108e-07
1.22602e-09
1.47184e-07
1.30342e-09
1.47221e-07
1.42552e-09
1.47314e-07
1.54032e-09
1.47356e-07
1.71567e-09
1.47468e-07
1.8748e-09
1.47521e-07
2.11531e-09
1.47656e-07
2.32839e-09
1.47725e-07
2.65051e-09
1.47887e-07
2.93048e-09
1.4798e-07
3.35643e-09
1.48174e-07
3.7204e-09
1.48299e-07
4.27988e-09
1.48531e-07
4.75027e-09
1.48696e-07
5.4828e-09
1.48974e-07
6.08888e-09
1.49189e-07
7.04705e-09
1.4952e-07
7.82702e-09
1.49796e-07
9.08091e-09
1.50187e-07
1.00847e-08
1.50531e-07
1.17281e-08
1.50986e-07
1.30213e-08
1.51403e-07
1.51802e-08
1.5192e-07
1.6849e-08
1.52402e-07
1.96934e-08
1.52962e-07
2.18516e-08
1.53481e-07
2.5612e-08
1.54038e-07
2.84093e-08
1.54524e-07
3.3398e-08
1.54971e-07
3.70298e-08
1.55293e-07
4.3666e-08
1.55415e-07
4.83802e-08
1.55372e-07
5.72053e-08
1.54739e-07
6.32937e-08
1.54262e-07
7.49059e-08
7.64302e-08
8.26418e-08
7.55494e-08
-4.65702e-08
4.71974e-08
7.58285e-08
-7.31151e-08
7.16763e-08
5.25623e-08
-7.00706e-08
6.82969e-08
5.938e-08
-6.63077e-08
6.38355e-08
6.66926e-08
-6.10932e-08
5.79926e-08
7.45535e-08
-5.4564e-08
5.06519e-08
8.23179e-08
-4.63647e-08
4.17083e-08
9.00897e-08
-3.66789e-08
3.12073e-08
9.69943e-08
-2.54102e-08
1.93375e-08
1.02551e-07
-1.30393e-08
6.56016e-09
1.05976e-07
1.46934e-07
9.90639e-10
1.47003e-07
1.00438e-09
1.47058e-07
1.03956e-09
1.47139e-07
1.08162e-09
1.47194e-07
1.15435e-09
1.47291e-07
1.22727e-09
1.47351e-07
1.34249e-09
1.47468e-07
1.45068e-09
1.47538e-07
1.61622e-09
1.4768e-07
1.76626e-09
1.47767e-07
1.99346e-09
1.4794e-07
2.1945e-09
1.48052e-07
2.49906e-09
1.48262e-07
2.76345e-09
1.4841e-07
3.16662e-09
1.48666e-07
3.51074e-09
1.4886e-07
4.04108e-09
1.49172e-07
4.48648e-09
1.49428e-07
5.18218e-09
1.49808e-07
5.75719e-09
1.50142e-07
6.66941e-09
1.50606e-07
7.4113e-09
1.51037e-07
8.60884e-09
1.51601e-07
9.56682e-09
1.52148e-07
1.11428e-08
1.5283e-07
1.23823e-08
1.53515e-07
1.44634e-08
1.5433e-07
1.60721e-08
1.55165e-07
1.88327e-08
1.56121e-07
2.09289e-08
1.57104e-07
2.46104e-08
1.58185e-07
2.73555e-08
1.59279e-07
3.22939e-08
1.60418e-07
3.59107e-08
1.61513e-07
4.25711e-08
1.62529e-07
4.73759e-08
1.63365e-07
5.63783e-08
1.63806e-07
6.28575e-08
1.63832e-07
7.4894e-08
8.23213e-08
8.39986e-08
8.01527e-08
-4.76611e-08
4.77887e-08
8.22223e-08
-7.91923e-08
7.82049e-08
-5.36248e-08
5.45967e-08
-7.71019e-08
7.55846e-08
-6.09615e-08
6.24615e-08
-7.38749e-08
7.16081e-08
-6.89533e-08
7.1198e-08
-6.9069e-08
6.58865e-08
-7.75134e-08
8.06652e-08
-6.23203e-08
5.83099e-08
-8.62095e-08
9.0176e-08
-5.37608e-08
4.86573e-08
-9.501e-08
1.00058e-07
-4.30159e-08
3.68112e-08
-1.03042e-07
1.09182e-07
-3.01285e-08
2.30062e-08
-1.09501e-07
1.16552e-07
-1.55463e-08
7.83452e-09
-1.13518e-07
1.21154e-07
1.4695e-07
9.1375e-10
1.47034e-07
9.26451e-10
1.47104e-07
9.58932e-10
1.47201e-07
9.97806e-10
1.47273e-07
1.06497e-09
1.47388e-07
1.13238e-09
1.47467e-07
1.23882e-09
1.47606e-07
1.33887e-09
1.47699e-07
1.49186e-09
1.47867e-07
1.63067e-09
1.47984e-07
1.84077e-09
1.48188e-07
2.0269e-09
1.48338e-07
2.30876e-09
1.48588e-07
2.55373e-09
1.48783e-07
2.92727e-09
1.4909e-07
3.24646e-09
1.49346e-07
3.7385e-09
1.49724e-07
4.15223e-09
1.5006e-07
4.79885e-09
1.50527e-07
5.33397e-09
1.50965e-07
6.18381e-09
1.51542e-07
6.8759e-09
1.5211e-07
7.99485e-09
1.52824e-07
8.89141e-09
1.53554e-07
1.03695e-08
1.54436e-07
1.15345e-08
1.55364e-07
1.34957e-08
1.56448e-07
1.50163e-08
1.57613e-07
1.76338e-08
1.58931e-07
1.96302e-08
1.60367e-07
2.31478e-08
1.61944e-07
2.57895e-08
1.63665e-07
3.05536e-08
1.65494e-07
3.40836e-08
1.67468e-07
4.05875e-08
1.69468e-07
4.53664e-08
1.71546e-07
5.43012e-08
1.7349e-07
6.0894e-08
1.7522e-07
7.31759e-08
8.97854e-08
8.25705e-08
8.68358e-08
-4.79941e-08
4.79015e-08
8.99114e-08
-8.63479e-08
8.5831e-08
-5.52426e-08
5.57496e-08
-8.52175e-08
8.41641e-08
-6.36751e-08
6.47174e-08
-8.29481e-08
8.10423e-08
-7.31218e-08
7.50127e-08
-7.8895e-08
7.5542e-08
-8.34151e-08
8.67439e-08
-7.17913e-08
6.79387e-08
-9.3874e-08
9.76788e-08
-6.32328e-08
5.76917e-08
-1.05275e-07
1.10754e-07
-5.13906e-08
4.4279e-08
-1.16012e-07
1.2305e-07
-3.64599e-08
2.79759e-08
-1.24803e-07
1.33204e-07
-1.89714e-08
9.58253e-09
-1.30347e-07
1.39647e-07
1.46965e-07
8.23022e-10
1.47063e-07
8.34465e-10
1.47149e-07
8.63773e-10
1.47261e-07
8.98799e-10
1.4735e-07
9.59415e-10
1.47483e-07
1.02016e-09
1.47583e-07
1.11624e-09
1.47743e-07
1.20643e-09
1.4786e-07
1.34459e-09
1.48055e-07
1.46978e-09
1.48201e-07
1.65961e-09
1.48439e-07
1.82756e-09
1.48627e-07
2.08242e-09
1.4892e-07
2.30365e-09
1.49163e-07
2.64173e-09
1.49525e-07
2.93028e-09
1.49844e-07
3.37617e-09
1.50293e-07
3.75069e-09
1.5071e-07
4.33764e-09
1.51269e-07
4.8229e-09
1.51814e-07
5.59595e-09
1.52512e-07
6.225e-09
1.53221e-07
7.24566e-09
1.54094e-07
8.06302e-09
1.55011e-07
9.4161e-09
1.56104e-07
1.04824e-08
1.57283e-07
1.22862e-08
1.5865e-07
1.36853e-08
1.60152e-07
1.61074e-08
1.61854e-07
1.79576e-08
1.63748e-07
2.12386e-08
1.65849e-07
2.37104e-08
1.68196e-07
2.82013e-08
1.70743e-07
3.15481e-08
1.7357e-07
3.7766e-08
1.76559e-07
4.23786e-08
1.79789e-07
5.10874e-08
1.83078e-07
5.7594e-08
1.8637e-07
6.99096e-08
9.64934e-08
7.93527e-08
9.30711e-08
-4.73937e-08
4.65706e-08
9.73521e-08
-9.41115e-08
9.42891e-08
-5.59314e-08
5.57515e-08
-9.44161e-08
9.41271e-08
-6.54254e-08
6.57132e-08
-9.3721e-08
9.27414e-08
-7.64862e-08
7.74642e-08
-9.16316e-08
8.98166e-08
-8.91608e-08
9.09725e-08
-4.42107e-08
-5.14771e-08
4.24869e-08
5.32108e-08
-3.94086e-08
-6.00458e-08
3.75489e-08
6.19306e-08
-3.23536e-08
-6.80898e-08
2.99648e-08
7.05146e-08
-2.25368e-08
-7.47409e-08
1.95423e-08
7.77805e-08
-1.02165e-08
8.22624e-08
-7.88093e-08
6.81496e-09
1.46975e-07
7.19641e-10
1.47085e-07
7.29665e-10
1.47184e-07
7.55307e-10
1.4731e-07
7.85994e-10
1.47413e-07
8.39035e-10
1.47561e-07
8.92268e-10
1.47676e-07
9.76357e-10
1.47854e-07
1.05541e-09
1.47991e-07
1.17637e-09
1.48207e-07
1.28614e-09
1.48378e-07
1.45243e-09
1.48643e-07
1.59977e-09
1.48861e-07
1.82318e-09
1.49188e-07
2.01737e-09
1.49471e-07
2.31399e-09
1.49877e-07
2.5675e-09
1.50247e-07
2.95917e-09
1.50753e-07
3.28857e-09
1.51239e-07
3.8049e-09
1.51872e-07
4.23234e-09
1.52507e-07
4.91367e-09
1.53305e-07
5.46887e-09
1.54135e-07
6.37063e-09
1.55141e-07
7.09391e-09
1.56222e-07
8.29313e-09
1.57497e-07
9.23999e-09
1.58901e-07
1.08452e-08
1.60519e-07
1.20934e-08
1.62335e-07
1.42603e-08
1.6439e-07
1.5921e-08
1.66728e-07
1.88773e-08
1.69333e-07
2.11139e-08
1.72321e-07
2.51996e-08
1.75607e-07
2.82596e-08
1.79376e-07
3.39951e-08
1.83474e-07
3.82654e-08
1.88106e-07
4.64684e-08
1.93096e-07
5.25741e-08
1.98465e-07
6.45698e-08
1.03939e-07
7.35371e-08
1.003e-07
-4.54579e-08
4.39769e-08
1.05459e-07
-1.0258e-07
1.03586e-07
-5.5227e-08
5.42281e-08
-1.04572e-07
1.05261e-07
-6.56857e-08
6.50076e-08
-1.05831e-07
1.05915e-07
-7.83167e-08
7.82465e-08
-1.05719e-07
1.04769e-07
-9.3465e-08
9.44333e-08
-5.26203e-08
-5.61763e-08
5.18746e-08
5.69197e-08
-4.87764e-08
-6.65637e-08
4.7321e-08
6.80332e-08
-4.1619e-08
-7.74485e-08
3.91626e-08
7.99354e-08
-3.00251e-08
-8.71591e-08
2.63577e-08
9.08727e-08
-1.39174e-08
9.79827e-08
-9.33733e-08
9.36542e-09
1.46988e-07
6.05374e-10
1.4711e-07
6.13805e-10
1.47221e-07
6.3541e-10
1.47359e-07
6.61221e-10
1.47476e-07
7.05918e-10
1.47638e-07
7.50698e-10
1.4777e-07
8.21574e-10
1.47965e-07
8.88092e-10
1.48122e-07
9.90077e-10
1.48359e-07
1.08247e-09
1.48554e-07
1.22274e-09
1.48845e-07
1.34681e-09
1.49095e-07
1.53535e-09
1.49455e-07
1.69899e-09
1.49778e-07
1.94951e-09
1.50228e-07
2.16332e-09
1.50649e-07
2.49442e-09
1.51212e-07
2.77255e-09
1.51764e-07
3.2096e-09
1.52473e-07
3.57102e-09
1.53195e-07
4.14869e-09
1.54091e-07
4.61904e-09
1.55037e-07
5.38523e-09
1.56175e-07
5.99951e-09
1.57412e-07
7.0213e-09
1.58863e-07
7.82812e-09
1.60478e-07
9.20091e-09
1.62336e-07
1.02691e-08
1.64444e-07
1.21313e-08
1.6683e-07
1.35608e-08
1.69577e-07
1.6118e-08
1.72649e-07
1.8058e-08
1.76223e-07
2.1624e-08
1.80183e-07
2.43045e-08
1.84816e-07
2.93737e-08
1.89912e-07
3.31604e-08
1.95861e-07
4.05438e-08
2.02377e-07
4.60329e-08
2.09858e-07
5.7129e-08
1.10834e-07
6.52993e-08
1.07217e-07
-4.20005e-08
3.95925e-08
1.13283e-07
-1.11323e-07
1.13357e-07
-5.2808e-08
5.0792e-08
-1.15435e-07
1.17377e-07
-6.38795e-08
6.19606e-08
-1.19258e-07
1.20819e-07
-7.77542e-08
7.62229e-08
-1.22154e-07
1.22794e-07
-9.50811e-08
9.44769e-08
-6.33769e-08
-5.8586e-08
6.31451e-08
5.88049e-08
-6.13493e-08
-7.20736e-08
6.03189e-08
7.3106e-08
-5.53159e-08
-8.75398e-08
5.28857e-08
8.99935e-08
-4.21499e-08
-1.02795e-07
3.7354e-08
1.0764e-07
-2.02729e-08
1.19913e-07
-1.1328e-07
1.37039e-08
1.46997e-07
4.81735e-10
1.47128e-07
4.88457e-10
1.47248e-07
5.0565e-10
1.47395e-07
5.26231e-10
1.47522e-07
5.61803e-10
1.47695e-07
5.97513e-10
1.47839e-07
6.53929e-10
1.48046e-07
7.06982e-10
1.48218e-07
7.88182e-10
1.4847e-07
8.6189e-10
1.48683e-07
9.73607e-10
1.48994e-07
1.07262e-09
1.49266e-07
1.22286e-09
1.49652e-07
1.3535e-09
1.50004e-07
1.55325e-09
1.50486e-07
1.72403e-09
1.50946e-07
1.98826e-09
1.51551e-07
2.21057e-09
1.52154e-07
2.55972e-09
1.52919e-07
2.84889e-09
1.5371e-07
3.311e-09
1.54682e-07
3.6878e-09
1.55721e-07
4.30183e-09
1.56962e-07
4.79478e-09
1.58327e-07
5.61554e-09
1.59923e-07
6.26451e-09
1.61717e-07
7.3706e-09
1.63779e-07
8.23247e-09
1.66142e-07
9.73912e-09
1.68822e-07
1.08973e-08
1.71942e-07
1.2978e-08
1.75447e-07
1.45583e-08
1.7958e-07
1.74834e-08
1.84195e-07
1.9682e-08
1.89685e-07
2.38897e-08
1.95801e-07
2.70223e-08
2.03109e-07
3.32593e-08
2.11253e-07
3.78489e-08
2.20961e-07
4.74661e-08
1.17578e-07
5.43966e-08
1.14226e-07
-3.67877e-08
3.35117e-08
1.20899e-07
-1.20057e-07
1.23248e-07
-4.8255e-08
4.50913e-08
-1.2657e-07
1.30044e-07
-5.94041e-08
5.59659e-08
-1.33574e-07
1.37128e-07
-7.39057e-08
7.03958e-08
-1.40624e-07
1.43783e-07
-9.28921e-08
8.97861e-08
-7.62838e-08
-5.85486e-08
7.68555e-08
5.79511e-08
-7.76169e-08
-7.54545e-08
7.75269e-08
7.55278e-08
-7.57865e-08
-9.73064e-08
7.57033e-08
9.73948e-08
-6.2942e-08
-1.22942e-07
5.66769e-08
1.29266e-07
-3.23966e-08
1.5277e-07
-1.42473e-07
2.21738e-08
1.47003e-07
3.5085e-10
1.47142e-07
3.55741e-10
1.4727e-07
3.68283e-10
1.47427e-07
3.83257e-10
1.47563e-07
4.0921e-10
1.47746e-07
4.35194e-10
1.47901e-07
4.76359e-10
1.4812e-07
5.14969e-10
1.48305e-07
5.74229e-10
1.48572e-07
6.27886e-10
1.48802e-07
7.09439e-10
1.49131e-07
7.81541e-10
1.49424e-07
8.91256e-10
1.49834e-07
9.8644e-10
1.50213e-07
1.13238e-09
1.50726e-07
1.25689e-09
1.51221e-07
1.45004e-09
1.51866e-07
1.61227e-09
1.52515e-07
1.8677e-09
1.53331e-07
2.07894e-09
1.54183e-07
2.41736e-09
1.55223e-07
2.69302e-09
1.56343e-07
3.14329e-09
1.57676e-07
3.50458e-09
1.5915e-07
4.1075e-09
1.60868e-07
4.58429e-09
1.62812e-07
5.39866e-09
1.65042e-07
6.03385e-09
1.67615e-07
7.14653e-09
1.70532e-07
8.0035e-09
1.73953e-07
9.5466e-09
1.77803e-07
1.07219e-08
1.82384e-07
1.29039e-08
1.87516e-07
1.45492e-08
1.93707e-07
1.77146e-08
2.00636e-07
2.00766e-08
2.09101e-07
2.48273e-08
2.18594e-07
2.83188e-08
2.30334e-07
3.57792e-08
1.2319e-07
4.11144e-08
1.20363e-07
-2.97835e-08
2.5599e-08
1.2742e-07
-1.2814e-07
1.3257e-07
-4.13329e-08
3.69397e-08
-1.37237e-07
1.42437e-07
-5.17339e-08
4.6581e-08
-1.47851e-07
1.53854e-07
-6.57827e-08
5.9838e-08
-1.60032e-07
1.66705e-07
-8.5106e-08
7.85052e-08
-9.0818e-08
-5.44822e-08
9.26028e-08
5.26569e-08
-9.76912e-08
-7.40107e-08
9.90697e-08
7.25901e-08
-1.0076e-07
-1.0245e-07
1.02875e-07
5.0294e-08
4.99939e-08