/*--------------------------------*- C++ -*----------------------------------*\
| =========                 |                                                 |
| \\      /  F ield         | foam-extend: Open Source CFD                    |
|  \\    /   O peration     | Version:     4.0                                |
|   \\  /    A nd           | Web:         http://www.foam-extend.org         |
|    \\/     M anipulation  |                                                 |
\*---------------------------------------------------------------------------*/
FoamFile
{
    version     2.0;
    format      ascii;
    class       volVectorField;
    location    "6e-05";
    object      U;
}
// * * * * * * * * * * * * * * * * * * * * * * * * * * * * * * * * * * * * * //

dimensions      [0 1 -1 0 0 0 0];

internalField   nonuniform List<vector> 
28770
(
(4.91221 0.00234775 0)
(5.07818 0.00237238 0)
(4.90299 0.0024635 0)
(5.06757 0.0025394 0)
(4.89358 0.00272704 0)
(5.05538 0.00285813 0)
(4.88331 0.00315329 0)
(5.04095 0.00334661 0)
(4.87142 0.00376632 0)
(5.02353 0.00403227 0)
(4.85702 0.00460026 0)
(5.00224 0.00495315 0)
(4.83906 0.00570062 0)
(4.97601 0.00615928 0)
(4.81624 0.00712584 0)
(4.94351 0.00771438 0)
(4.78696 0.00894897 0)
(4.90309 0.00969747 0)
(4.74929 0.011259 0)
(4.85269 0.0122042 0)
(4.70082 0.0141617 0)
(4.78975 0.0153472 0)
(4.63865 0.0177785 0)
(4.71115 0.0192548 0)
(4.55923 0.0222435 0)
(4.61307 0.0240665 0)
(4.45836 0.027695 0)
(4.49098 0.0299243 0)
(4.33105 0.0342625 0)
(4.33956 0.0369566 0)
(4.1716 0.0420447 0)
(4.15285 0.0452547 0)
(3.9737 0.0510804 0)
(3.92437 0.0548393 0)
(3.73065 0.0613131 0)
(3.64755 0.0656197 0)
(3.43586 0.0725565 0)
(3.31639 0.077349 0)
(3.08363 0.0844671 0)
(2.92628 0.0895864 0)
(2.67018 0.0965278 0)
(2.47521 0.10168 0)
(2.19491 0.108036 0)
(1.9649 0.11279 0)
(1.66167 0.118111 0)
(1.40188 0.121975 0)
(1.07956 0.125822 0)
(0.797964 0.128346 0)
(0.462914 0.130367 0)
(0.169762 0.131245 0)
(4.91223 0.00693779 0)
(5.07829 0.00703927 0)
(4.90316 0.00727119 0)
(5.06783 0.00758204 0)
(4.89389 0.0080607 0)
(5.0558 0.00859837 0)
(4.88379 0.00935421 0)
(5.04155 0.0101488 0)
(4.87209 0.0112297 0)
(5.02435 0.0123251 0)
(4.85792 0.0137988 0)
(5.00332 0.0152545 0)
(4.84024 0.0172124 0)
(4.97741 0.0191055 0)
(4.81776 0.0216667 0)
(4.9453 0.0240946 0)
(4.7889 0.0274107 0)
(4.90535 0.0304938 0)
(4.75174 0.0347544 0)
(4.85553 0.0386386 0)
(4.7039 0.0440752 0)
(4.79329 0.0489339 0)
(4.64247 0.0558228 0)
(4.71552 0.0618567 0)
(4.56395 0.0705166 0)
(4.61841 0.077951 0)
(4.46409 0.0887326 0)
(4.49741 0.0978089 0)
(4.33793 0.111071 0)
(4.34719 0.12203 0)
(4.17973 0.138097 0)
(4.1617 0.151147 0)
(3.98309 0.170235 0)
(3.93439 0.18551 0)
(3.7412 0.207624 0)
(3.65856 0.225108 0)
(3.44734 0.249911 0)
(3.32805 0.269344 0)
(3.09561 0.296024 0)
(2.93809 0.316781 0)
(2.68202 0.343972 0)
(2.48648 0.364948 0)
(2.20579 0.390773 0)
(1.97477 0.410343 0)
(1.67066 0.432605 0)
(1.40943 0.448763 0)
(1.0858 0.465227 0)
(0.802415 0.475952 0)
(0.465753 0.484732 0)
(0.170621 0.488497 0)
(4.91231 0.0114939 0)
(5.07851 0.0116436 0)
(4.90353 0.012053 0)
(5.06835 0.0125107 0)
(4.89458 0.0133549 0)
(5.05665 0.0141461 0)
(4.88483 0.015477 0)
(5.04278 0.0166456 0)
(4.87355 0.0185444 0)
(5.02604 0.0201547 0)
(4.85989 0.0227359 0)
(5.00558 0.0248752 0)
(4.84283 0.0282915 0)
(4.98037 0.0310739 0)
(4.82112 0.0355226 0)
(4.94914 0.0390929 0)
(4.79323 0.0448228 0)
(4.91028 0.0493609 0)
(4.75726 0.0566791 0)
(4.86181 0.0624037 0)
(4.7109 0.0716808 0)
(4.80125 0.0788525 0)
(4.6513 0.0905234 0)
(4.72554 0.0994443 0)
(4.57499 0.114001 0)
(4.63091 0.12501 0)
(4.4778 0.142979 0)
(4.51285 0.156439 0)
(4.35476 0.178335 0)
(4.36603 0.19461 0)
(4.20011 0.220859 0)
(4.18432 0.240269 0)
(4.00735 0.271084 0)
(3.96098 0.293844 0)
(3.76942 0.329068 0)
(3.68896 0.355184 0)
(3.47917 0.394109 0)
(3.36154 0.423232 0)
(3.13008 0.464465 0)
(2.97323 0.49569 0)
(2.71734 0.537124 0)
(2.52104 0.568764 0)
(2.23936 0.607695 0)
(2.00586 0.637194 0)
(1.69929 0.670487 0)
(1.43382 0.694756 0)
(1.10618 0.719228 0)
(0.817062 0.735265 0)
(0.475198 0.748262 0)
(0.173449 0.753876 0)
(4.91238 0.0158085 0)
(5.07884 0.0160311 0)
(4.90401 0.0165724 0)
(5.06911 0.017253 0)
(4.8955 0.0183699 0)
(5.05788 0.0195469 0)
(4.88623 0.0213098 0)
(5.04455 0.0230491 0)
(4.87552 0.0255686 0)
(5.02845 0.0279666 0)
(4.86255 0.031399 0)
(5.00876 0.0345864 0)
(4.84631 0.0391421 0)
(4.98449 0.0432891 0)
(4.82561 0.0492418 0)
(4.9544 0.0545642 0)
(4.79896 0.0622622 0)
(4.91696 0.0690276 0)
(4.76451 0.0789055 0)
(4.87022 0.0874402 0)
(4.72001 0.100029 0)
(4.81174 0.110723 0)
(4.66264 0.126656 0)
(4.73851 0.139963 0)
(4.58898 0.159973 0)
(4.64679 0.176407 0)
(4.49487 0.201301 0)
(4.53203 0.221421 0)
(4.37531 0.252031 0)
(4.38882 0.276405 0)
(4.22444 0.313488 0)
(4.21088 0.342634 0)
(4.03555 0.38671 0)
(3.99117 0.420994 0)
(3.80126 0.472109 0)
(3.72225 0.511596 0)
(3.51397 0.569016 0)
(3.39694 0.613242 0)
(3.16656 0.675134 0)
(3.00924 0.722805 0)
(2.75357 0.78603 0)
(2.55558 0.834684 0)
(2.27279 0.894889 0)
(2.03625 0.940705 0)
(1.72703 0.992776 0)
(1.45716 1.0309 0)
(1.12546 1.06954 0)
(0.830845 1.09498 0)
(0.483976 1.11565 0)
(0.176119 1.12461 0)
(4.91252 0.0199575 0)
(5.07925 0.0202234 0)
(4.90472 0.0209281 0)
(5.07011 0.0217407 0)
(4.89682 0.0231941 0)
(5.05953 0.0245992 0)
(4.88825 0.026892 0)
(5.04695 0.0289681 0)
(4.87836 0.0322422 0)
(5.03175 0.0351044 0)
(4.86637 0.0395601 0)
(5.01317 0.0433653 0)
(4.85135 0.0492711 0)
(4.99026 0.0542242 0)
(4.83216 0.0619289 0)
(4.96189 0.0682907 0)
(4.80739 0.0782369 0)
(4.92658 0.0863322 0)
(4.77529 0.0990712 0)
(4.8825 0.109297 0)
(4.7337 0.125501 0)
(4.82733 0.138334 0)
(4.67993 0.158802 0)
(4.75816 0.174799 0)
(4.61068 0.200455 0)
(4.67138 0.220248 0)
(4.52188 0.252106 0)
(4.56252 0.276383 0)
(4.4086 0.315481 0)
(4.4262 0.344949 0)
(4.26496 0.39221 0)
(4.25602 0.427522 0)
(4.08408 0.483542 0)
(4.0446 0.525188 0)
(3.85813 0.589907 0)
(3.78385 0.638045 0)
(3.5787 0.710361 0)
(3.46545 0.764554 0)
(3.23736 0.841975 0)
(3.08182 0.900792 0)
(2.82689 0.979354 0)
(2.62763 1.0398 0)
(2.34317 1.11435 0)
(2.10171 1.17144 0)
(1.7876 1.23577 0)
(1.50899 1.28323 0)
(1.16893 1.33088 0)
(0.862207 1.36248 0)
(0.504203 1.38791 0)
(0.18222 1.39901 0)
(4.91264 0.0237364 0)
(5.07979 0.0240674 0)
(4.90549 0.0248866 0)
(5.07133 0.0258985 0)
(4.89829 0.027589 0)
(5.0615 0.0293392 0)
(4.89051 0.032008 0)
(5.04979 0.0345951 0)
(4.88153 0.0384103 0)
(5.03561 0.0419786 0)
(4.87063 0.0471785 0)
(5.01827 0.0519245 0)
(4.85694 0.0588299 0)
(4.99688 0.0650101 0)
(4.83938 0.07404 0)
(4.97037 0.0819812 0)
(4.81662 0.0936707 0)
(4.93736 0.10378 0)
(4.787 0.118801 0)
(4.8961 0.13158 0)
(4.74844 0.150759 0)
(4.84435 0.166808 0)
(4.69834 0.191142 0)
(4.7793 0.211174 0)
(4.63348 0.241832 0)
(4.69736 0.266664 0)
(4.54983 0.304963 0)
(4.59408 0.335501 0)
(4.44244 0.382841 0)
(4.46395 0.42004 0)
(4.30529 0.477769 0)
(4.30031 0.522549 0)
(4.13117 0.591719 0)
(4.09531 0.644833 0)
(3.91177 0.72582 0)
(3.84019 0.787633 0)
(3.63785 0.879609 0)
(3.52581 0.949753 0)
(3.29996 1.05005 0)
(3.14375 1.1269 0)
(2.88968 1.23051 0)
(2.68776 1.31042 0)
(2.40168 1.41008 0)
(2.15515 1.48674 0)
(1.83649 1.57384 0)
(1.55028 1.63866 0)
(1.20305 1.70395 0)
(0.886684 1.74774 0)
(0.519751 1.78292 0)
(0.186991 1.79844 0)
(4.91285 0.027233 0)
(5.08038 0.0275993 0)
(4.90652 0.0285592 0)
(5.07275 0.029679 0)
(4.90019 0.0316594 0)
(5.06385 0.0335963 0)
(4.8934 0.0367222 0)
(5.05322 0.0395856 0)
(4.88559 0.0440528 0)
(5.04034 0.0480034 0)
(4.87611 0.0540894 0)
(5.02457 0.0593463 0)
(4.86417 0.0674249 0)
(5.00516 0.0742757 0)
(4.84878 0.0848348 0)
(4.98111 0.0936468 0)
(4.82873 0.10731 0)
(4.95118 0.118544 0)
(4.80251 0.136097 0)
(4.91379 0.15032 0)
(4.76819 0.17273 0)
(4.86687 0.190629 0)
(4.72338 0.21907 0)
(4.80779 0.24146 0)
(4.66501 0.277316 0)
(4.73319 0.305137 0)
(4.58928 0.349981 0)
(4.63878 0.384283 0)
(4.49138 0.439802 0)
(4.51916 0.481698 0)
(4.36534 0.549529 0)
(4.36759 0.600109 0)
(4.20381 0.681529 0)
(4.17591 0.741724 0)
(3.99796 0.837146 0)
(3.93443 0.907518 0)
(3.73744 1.01576 0)
(3.63234 1.09618 0)
(3.41081 1.21373 0)
(3.25852 1.30279 0)
(3.0066 1.42354 0)
(2.80346 1.51738 0)
(2.51582 1.63355 0)
(2.26206 1.72408 0)
(1.93636 1.82573 0)
(1.6364 1.90221 0)
(1.27574 1.97836 0)
(0.939529 2.02986 0)
(0.55384 2.07083 0)
(0.197419 2.08903 0)
(4.913 0.0302475 0)
(5.08109 0.0306679 0)
(4.90753 0.0317174 0)
(5.07436 0.0330026 0)
(4.90213 0.0351688 0)
(5.06646 0.0373923 0)
(4.89638 0.0408135 0)
(5.05697 0.0441019 0)
(4.88977 0.0489956 0)
(5.04544 0.0535343 0)
(4.88174 0.0602098 0)
(5.03133 0.066252 0)
(4.87156 0.075127 0)
(5.01393 0.0830051 0)
(4.85835 0.094628 0)
(4.99238 0.104767 0)
(4.841 0.119843 0)
(4.96555 0.132778 0)
(4.81811 0.152199 0)
(4.93197 0.168592 0)
(4.78791 0.193471 0)
(4.88973 0.214128 0)
(4.74812 0.245826 0)
(4.83633 0.271715 0)
(4.69583 0.311862 0)
(4.76851 0.344117 0)
(4.62733 0.394608 0)
(4.68203 0.434522 0)
(4.53783 0.49746 0)
(4.57139 0.546447 0)
(4.42123 0.624001 0)
(4.42956 0.683518 0)
(4.26984 0.777638 0)
(4.24769 0.849037 0)
(4.07411 0.960939 0)
(4.01509 1.04522 0)
(3.82258 1.17458 0)
(3.71966 1.272 0)
(3.50227 1.41578 0)
(3.34919 1.5251 0)
(3.0998 1.67636 0)
(2.89339 1.79344 0)
(2.60408 1.94103 0)
(2.34332 2.05668 0)
(2.01091 2.18785 0)
(1.69974 2.28815 0)
(1.32804 2.38819 0)
(0.977222 2.45725 0)
(0.577694 2.51185 0)
(0.204815 2.53658 0)
(4.91326 0.032883 0)
(5.08182 0.0333282 0)
(4.9088 0.034488 0)
(5.07613 0.0358492 0)
(4.90449 0.038243 0)
(5.06938 0.0405983 0)
(4.89997 0.0443789 0)
(5.06123 0.0478631 0)
(4.89483 0.0532708 0)
(5.05132 0.058082 0)
(4.88856 0.0654588 0)
(5.03918 0.0718683 0)
(4.88057 0.0816765 0)
(5.02425 0.0900419 0)
(4.87009 0.102889 0)
(5.0058 0.11367 0)
(4.85616 0.130341 0)
(4.98287 0.144117 0)
(4.83758 0.165608 0)
(4.9542 0.183103 0)
(4.81278 0.210664 0)
(4.91813 0.232764 0)
(4.77976 0.267939 0)
(4.87245 0.295713 0)
(4.73591 0.340371 0)
(4.81421 0.375081 0)
(4.6778 0.43143 0)
(4.73949 0.474526 0)
(4.60097 0.545064 0)
(4.64306 0.598142 0)
(4.49955 0.685514 0)
(4.51803 0.750234 0)
(4.36588 0.856888 0)
(4.35539 0.934822 0)
(4.19006 1.06232 0)
(4.14362 1.15475 0)
(3.95949 1.30256 0)
(3.86851 1.41023 0)
(3.65863 1.574 0)
(3.51367 1.69669 0)
(3.26934 1.86728 0)
(3.06262 2.00196 0)
(2.77357 2.16945 0)
(2.50373 2.30344 0)
(2.163 2.45301 0)
(1.83256 2.56879 0)
(1.44131 2.68281 0)
(1.06061 2.76202 0)
(0.631517 2.8241 0)
(0.221635 2.85235 0)
(4.91343 0.0349494 0)
(5.08266 0.0354347 0)
(4.91 0.0366529 0)
(5.07804 0.0381371 0)
(4.90678 0.0406522 0)
(5.07246 0.043221 0)
(4.90349 0.0471955 0)
(5.06567 0.0509966 0)
(4.89978 0.0566865 0)
(5.05738 0.0619373 0)
(4.89524 0.0697076 0)
(5.04721 0.0767059 0)
(4.88936 0.0870523 0)
(5.0347 0.096191 0)
(4.88149 0.109768 0)
(5.01926 0.121553 0)
(4.87081 0.139208 0)
(5.00008 0.154281 0)
(4.85629 0.177101 0)
(4.97608 0.196265 0)
(4.83653 0.225621 0)
(4.94581 0.24987 0)
(4.80975 0.287475 0)
(4.90725 0.318019 0)
(4.77355 0.365976 0)
(4.85767 0.404271 0)
(4.7247 0.465107 0)
(4.7933 0.512862 0)
(4.65887 0.589525 0)
(4.70892 0.648689 0)
(4.57016 0.744449 0)
(4.59736 0.817154 0)
(4.45059 0.935348 0)
(4.44884 1.02378 0)
(4.28946 1.16725 0)
(4.25033 1.27346 0)
(4.07274 1.44345 0)
(3.98544 1.56903 0)
(3.78275 1.76333 0)
(3.63637 1.90881 0)
(3.39872 2.11877 0)
(3.18927 2.28163 0)
(2.89928 2.48973 0)
(2.62097 2.65755 0)
(2.27072 2.84718 0)
(1.92476 2.9981 0)
(1.51725 3.14681 0)
(1.11557 3.25366 0)
(0.666139 3.33657 0)
(0.232471 3.37543 0)
(4.91373 0.0365656 0)
(5.08349 0.0370632 0)
(4.91145 0.0383553 0)
(5.08005 0.0398772 0)
(4.90947 0.0425451 0)
(5.07579 0.0451797 0)
(4.90758 0.0493961 0)
(5.07053 0.0532962 0)
(4.90554 0.0593334 0)
(5.06407 0.0647243 0)
(4.90302 0.0729712 0)
(5.05616 0.0801627 0)
(4.89965 0.0911482 0)
(5.04649 0.10055 0)
(4.89492 0.114975 0)
(5.03462 0.127119 0)
(4.88821 0.145894 0)
(5.01997 0.161458 0)
(4.87869 0.185757 0)
(5.00171 0.205593 0)
(4.86527 0.236914 0)
(4.9787 0.262085 0)
(4.84649 0.302313 0)
(4.94932 0.334128 0)
(4.82036 0.385618 0)
(4.91128 0.425661 0)
(4.78413 0.4913 0)
(4.86131 0.541448 0)
(4.73397 0.624695 0)
(4.79476 0.687108 0)
(4.66451 0.791949 0)
(4.70495 0.86899 0)
(4.56821 0.999702 0)
(4.58246 1.09378 0)
(4.43453 1.25424 0)
(4.41407 1.36761 0)
(4.2489 1.55953 0)
(4.18172 1.69424 0)
(3.99134 1.91333 0)
(3.8617 2.07213 0)
(3.63439 2.30237 0)
(3.42585 2.48966 0)
(3.14167 2.72288 0)
(2.85373 2.91678 0)
(2.49645 3.1313 0)
(2.12595 3.30368 0)
(1.69154 3.47136 0)
(1.24641 3.59189 0)
(0.750754 3.68483 0)
(0.259684 3.72835 0)
(4.91392 0.0375552 0)
(5.08441 0.0380771 0)
(4.91275 0.0393917 0)
(5.08214 0.0409879 0)
(4.91197 0.0437033 0)
(5.07917 0.0464671 0)
(4.91144 0.0507607 0)
(5.07541 0.0548532 0)
(4.91097 0.0610058 0)
(5.07073 0.0666646 0)
(4.91036 0.0750778 0)
(5.065 0.0826299 0)
(4.90932 0.0938519 0)
(5.05803 0.103731 0)
(4.9075 0.11849 0)
(5.04953 0.131259 0)
(4.90444 0.15051 0)
(5.03911 0.166888 0)
(4.8995 0.191865 0)
(5.02617 0.212766 0)
(4.89185 0.245056 0)
(5.00984 0.271626 0)
(4.88029 0.313248 0)
(4.98882 0.346914 0)
(4.86317 0.400416 0)
(4.96115 0.442935 0)
(4.83808 0.511494 0)
(4.92391 0.564999 0)
(4.80149 0.6525 0)
(4.87269 0.719524 0)
(4.74825 0.830598 0)
(4.80078 0.914062 0)
(4.67069 1.05397 0)
(4.69807 1.1571 0)
(4.55757 1.33134 0)
(4.54926 1.45752 0)
(4.39257 1.67076 0)
(4.33186 1.82353 0)
(4.15276 2.07713 0)
(4.0173 2.2608 0)
(3.80755 2.54675 0)
(3.60101 2.76698 0)
(3.3175 3.05197 0)
(3.02088 3.29276 0)
(2.64955 3.56268 0)
(2.25772 3.79022 0)
(1.79945 4.01174 0)
(1.32459 4.17925 0)
(0.799751 4.30704 0)
(0.275078 4.36936 0)
(4.91425 0.0380534 0)
(5.08529 0.0385736 0)
(4.9143 0.0399217 0)
(5.08427 0.0415132 0)
(4.91483 0.0442978 0)
(5.0827 0.0470542 0)
(4.9158 0.0514582 0)
(5.08056 0.0555417 0)
(4.91711 0.0618544 0)
(5.07785 0.067505 0)
(4.91866 0.0761408 0)
(5.07455 0.0836896 0)
(4.92031 0.0952158 0)
(5.07062 0.105104 0)
(4.92188 0.120277 0)
(5.06598 0.133081 0)
(4.9231 0.152896 0)
(5.06046 0.169356 0)
(4.92361 0.19511 0)
(5.05379 0.216175 0)
(4.9229 0.249549 0)
(5.04547 0.276417 0)
(4.92021 0.319578 0)
(5.03467 0.35376 0)
(4.91438 0.409486 0)
(5.02005 0.452863 0)
(4.90365 0.524696 0)
(4.99939 0.579579 0)
(4.88528 0.671992 0)
(4.96914 0.741159 0)
(4.85499 0.85972 0)
(4.92367 0.946383 0)
(4.80618 1.09787 0)
(4.85405 1.20548 0)
(4.7287 1.39773 0)
(4.74643 1.52953 0)
(4.60729 1.77027 0)
(4.57963 1.9288 0)
(4.4195 2.21908 0)
(4.32154 2.4092 0)
(4.13003 2.70731 0)
(3.92056 2.96764 0)
(3.6565 3.28767 0)
(3.35381 3.56798 0)
(2.98356 3.8746 0)
(2.56566 4.13223 0)
(2.07248 4.38038 0)
(1.53557 4.56609 0)
(0.936903 4.70735 0)
(0.320707 4.77563 0)
(4.91443 0.0379022 0)
(5.08624 0.0384297 0)
(4.91563 0.039762 0)
(5.08643 0.0413755 0)
(4.9174 0.0441284 0)
(5.08618 0.0469235 0)
(4.91975 0.0512794 0)
(5.08558 0.0554211 0)
(4.92268 0.0616692 0)
(5.08472 0.0674021 0)
(4.9262 0.0759578 0)
(5.08368 0.0836194 0)
(4.93029 0.0950528 0)
(5.08257 0.105093 0)
(4.9349 0.120168 0)
(5.08147 0.133177 0)
(4.93996 0.152901 0)
(5.08045 0.16964 0)
(4.94535 0.195336 0)
(5.07948 0.216782 0)
(4.95083 0.250176 0)
(5.07842 0.277578 0)
(4.95603 0.320913 0)
(5.07686 0.355858 0)
(4.96021 0.412041 0)
(5.07396 0.456536 0)
(4.96215 0.52932 0)
(5.06814 0.585884 0)
(4.95971 0.680077 0)
(5.05651 0.751832 0)
(4.9492 0.873532 0)
(5.03397 0.964255 0)
(4.9244 1.12105 0)
(4.99169 1.23513 0)
(4.87488 1.43619 0)
(4.91404 1.57838 0)
(4.78352 1.83416 0)
(4.77132 2.00935 0)
(4.62315 2.33059 0)
(4.49537 2.54643 0)
(4.35437 2.94101 0)
(4.1693 3.23356 0)
(3.90534 3.60951 0)
(3.59558 3.95547 0)
(3.20205 4.33811 0)
(2.75297 4.68709 0)
(2.22428 5.02523 0)
(1.64476 5.29677 0)
(1.00493 5.50229 0)
(0.341935 5.60673 0)
(4.91476 0.0372498 0)
(5.08711 0.0377612 0)
(4.91718 0.0390844 0)
(5.08855 0.0406491 0)
(4.92027 0.0433837 0)
(5.0897 0.046095 0)
(4.92412 0.0504231 0)
(5.09073 0.0544429 0)
(4.92884 0.0606533 0)
(5.09184 0.0662218 0)
(4.93454 0.0747304 0)
(5.09324 0.0821807 0)
(4.94134 0.0935592 0)
(5.09521 0.103338 0)
(4.94937 0.118355 0)
(5.09803 0.131049 0)
(4.9588 0.150725 0)
(5.10201 0.167099 0)
(4.96977 0.192782 0)
(5.10749 0.213825 0)
(4.98243 0.247288 0)
(5.11473 0.274276 0)
(4.99686 0.317853 0)
(5.1239 0.35243 0)
(5.01296 0.409192 0)
(5.13488 0.453466 0)
(5.0303 0.527461 0)
(5.147 0.584129 0)
(5.04777 0.680698 0)
(5.15857 0.753177 0)
(5.06299 0.879384 0)
(5.16603 0.971898 0)
(5.07141 1.13717 0)
(5.16262 1.25464 0)
(5.06479 1.47195 0)
(5.1361 1.61906 0)
(5.02928 1.90838 0)
(5.06571 2.0853 0)
(4.94538 2.48758 0)
(4.91923 2.67126 0)
(4.80284 3.02411 0)
(4.57512 3.40505 0)
(4.36335 3.84611 0)
(4.06722 4.25313 0)
(3.69993 4.69519 0)
(3.23845 5.08473 0)
(2.66945 5.45976 0)
(2.00268 5.75387 0)
(1.2404 5.97638 0)
(0.422973 6.08761 0)
(4.91493 0.0359626 0)
(5.08804 0.0364639 0)
(4.91846 0.0377329 0)
(5.09064 0.0392669 0)
(4.92273 0.0418899 0)
(5.09308 0.0445484 0)
(4.92792 0.0487017 0)
(5.0956 0.0526438 0)
(4.93422 0.0586073 0)
(5.0985 0.0640693 0)
(4.94183 0.0722467 0)
(5.10212 0.0795565 0)
(4.951 0.0905047 0)
(5.10685 0.100102 0)
(4.96203 0.114572 0)
(5.11317 0.127037 0)
(4.97526 0.14603 0)
(5.12163 0.162119 0)
(4.9911 0.186965 0)
(5.13285 0.207661 0)
(5.01003 0.240121 0)
(5.14751 0.266704 0)
(5.03255 0.309111 0)
(5.16629 0.34324 0)
(5.05914 0.3987 0)
(5.18977 0.442531 0)
(5.0901 0.515179 0)
(5.21819 0.571519 0)
(5.12523 0.66688 0)
(5.25105 0.739366 0)
(5.16336 0.864825 0)
(5.28638 0.958117 0)
(5.20125 1.12353 0)
(5.3195 1.24339 0)
(5.23171 1.46186 0)
(5.34137 1.61462 0)
(5.24004 1.90336 0)
(5.33847 2.09279 0)
(5.1969 2.47484 0)
(5.30602 2.68734 0)
(5.15263 3.17853 0)
(4.88881 3.41162 0)
(4.67013 3.83964 0)
(4.39926 4.29797 0)
(4.02581 4.80088 0)
(3.55894 5.30228 0)
(2.97513 5.81837 0)
(2.29029 6.28098 0)
(1.50091 6.66588 0)
(0.643307 6.91245 0)
(4.91525 0.0341959 0)
(5.08884 0.0346671 0)
(4.91993 0.0358853 0)
(5.09262 0.0373272 0)
(4.92544 0.0398456 0)
(5.09637 0.0423454 0)
(4.93204 0.0463341 0)
(5.10043 0.0500431 0)
(4.94002 0.0557723 0)
(5.10519 0.0609157 0)
(4.9497 0.0687759 0)
(5.11112 0.0756673 0)
(4.96145 0.0861984 0)
(5.11878 0.0952606 0)
(4.97575 0.109193 0)
(5.12883 0.120987 0)
(4.99315 0.1393 0)
(5.1421 0.154561 0)
(5.01436 0.178562 0)
(5.15954 0.198257 0)
(5.04024 0.22969 0)
(5.18229 0.255089 0)
(5.0718 0.296293 0)
(5.21162 0.329065 0)
(5.11019 0.383188 0)
(5.24893 0.425542 0)
(5.1566 0.496849 0)
(5.29554 0.551728 0)
(5.21212 0.646037 0)
(5.35239 0.71738 0)
(5.27718 0.842671 0)
(5.41935 0.935799 0)
(5.35075 1.10304 0)
(5.49389 1.22521 0)
(5.42828 1.44926 0)
(5.56841 1.61066 0)
(5.4975 1.9104 0)
(5.62528 2.12669 0)
(5.52754 2.51897 0)
(5.62703 2.82196 0)
(5.59381 3.24033 0)
(5.30679 3.55329 0)
(5.1566 4.05049 0)
(4.92379 4.59939 0)
(4.57802 5.19551 0)
(4.09237 5.82115 0)
(3.47291 6.4744 0)
(2.70472 7.08731 0)
(1.79475 7.5925 0)
(0.778966 7.91804 0)
(4.91539 0.0318467 0)
(5.08969 0.0322914 0)
(4.92106 0.033419 0)
(5.09451 0.0347802 0)
(4.92764 0.0371118 0)
(5.09943 0.0394718 0)
(4.93546 0.0431659 0)
(5.10484 0.0466677 0)
(4.94486 0.051977 0)
(5.11124 0.0568335 0)
(4.95628 0.0641232 0)
(5.11918 0.070631 0)
(4.97019 0.0804076 0)
(5.12936 0.0889668 0)
(4.98722 0.101918 0)
(5.14265 0.113059 0)
(5.00813 0.130109 0)
(5.16007 0.144533 0)
(5.03388 0.166922 0)
(5.18291 0.185549 0)
(5.06567 0.214944 0)
(5.21272 0.238988 0)
(5.10499 0.277639 0)
(5.25138 0.308711 0)
(5.15361 0.359676 0)
(5.30106 0.399926 0)
(5.21365 0.467396 0)
(5.36427 0.519722 0)
(5.28744 0.609503 0)
(5.44359 0.677849 0)
(5.37723 0.798056 0)
(5.54133 0.887858 0)
(5.48463 1.04993 0)
(5.65851 1.16878 0)
(5.60912 1.38887 0)
(5.7929 1.54766 0)
(5.74532 1.84824 0)
(5.93436 2.06371 0)
(5.87769 2.47408 0)
(6.05217 2.77781 0)
(6.14361 3.26775 0)
(5.80507 3.63941 0)
(5.72153 4.21231 0)
(5.55595 4.85588 0)
(5.26354 5.56213 0)
(4.75272 6.3142 0)
(4.11194 7.16997 0)
(3.25396 7.99798 0)
(2.18928 8.69271 0)
(0.963187 9.14377 0)
(4.91569 0.02907 0)
(5.09038 0.0294718 0)
(4.92236 0.03051 0)
(5.09623 0.0317398 0)
(4.93003 0.0338869 0)
(5.1023 0.0360199 0)
(4.93909 0.0394225 0)
(5.10906 0.0425893 0)
(4.94998 0.0474812 0)
(5.11709 0.0518768 0)
(4.96321 0.0585965 0)
(5.12707 0.0644936 0)
(4.97941 0.0735116 0)
(5.13984 0.0812795 0)
(4.99934 0.0932361 0)
(5.15643 0.103368 0)
(5.02397 0.119128 0)
(5.17814 0.132278 0)
(5.05453 0.153006 0)
(5.20656 0.170043 0)
(5.09257 0.197316 0)
(5.24368 0.219397 0)
(5.14007 0.25536 0)
(5.29195 0.284038 0)
(5.1995 0.331635 0)
(5.35441 0.369023 0)
(5.2739 0.432336 0)
(5.43469 0.481342 0)
(5.36695 0.566105 0)
(5.53701 0.630806 0)
(5.48282 0.745161 0)
(5.66598 0.8314 0)
(5.62582 0.987018 0)
(5.82577 1.1034 0)
(5.79927 1.31702 0)
(6.01821 1.47669 0)
(6.00279 1.77192 0)
(6.23809 1.99578 0)
(6.22676 2.40442 0)
(6.46219 2.72673 0)
(6.6234 3.20004 0)
(6.34723 3.66365 0)
(6.36454 4.3067 0)
(6.30926 5.05235 0)
(6.15818 5.88433 0)
(5.77121 7.05432 0)
(5.15367 8.11721 0)
(4.15699 9.16022 0)
(2.77054 10.0345 0)
(1.05912 10.5767 0)
(4.91578 0.0257981 0)
(5.0911 0.026159 0)
(4.92328 0.0270751 0)
(5.09782 0.0281797 0)
(4.93184 0.0300745 0)
(5.10485 0.0319904 0)
(4.94189 0.0349941 0)
(5.11273 0.0378386 0)
(4.95396 0.0421589 0)
(5.12212 0.0461071 0)
(4.96863 0.0520455 0)
(5.13378 0.0573421 0)
(4.98663 0.0653182 0)
(5.14868 0.0722949 0)
(5.00885 0.0828815 0)
(5.168 0.0919809 0)
(5.03644 0.105954 0)
(5.19325 0.117764 0)
(5.07086 0.136174 0)
(5.2263 0.151478 0)
(5.114 0.175753 0)
(5.26956 0.195596 0)
(5.16828 0.227693 0)
(5.32606 0.253486 0)
(5.23682 0.296117 0)
(5.39967 0.32979 0)
(5.32363 0.386762 0)
(5.49525 0.430995 0)
(5.43379 0.507746 0)
(5.61892 0.56634 0)
(5.57365 0.670777 0)
(5.77814 0.749256 0)
(5.75096 0.893109 0)
(5.98164 0.999756 0)
(5.97463 1.20078 0)
(6.23832 1.34848 0)
(6.2536 1.634 0)
(6.55369 1.84372 0)
(6.59341 2.25634 0)
(6.91922 2.5633 0)
(7.15554 3.0517 0)
(6.94226 3.59373 0)
(7.07664 4.30306 0)
(7.15422 5.16605 0)
(7.12762 6.21678 0)
(6.99804 7.54341 0)
(6.44187 8.9277 0)
(5.40457 10.3711 0)
(3.74877 11.6561 0)
(1.49832 12.4888 0)
(4.91604 0.0221779 0)
(5.09163 0.0224852 0)
(4.92434 0.0232789 0)
(5.09917 0.0242196 0)
(4.93376 0.0258615 0)
(5.10712 0.0274935 0)
(4.94482 0.0300969 0)
(5.11608 0.0325213 0)
(4.95807 0.0362668 0)
(5.12677 0.0396345 0)
(4.97421 0.0447847 0)
(5.14006 0.0493075 0)
(4.99405 0.0562284 0)
(5.15704 0.0621945 0)
(5.01861 0.0713868 0)
(5.17903 0.079183 0)
(5.04921 0.0913269 0)
(5.20773 0.10147 0)
(5.08754 0.11749 0)
(5.24531 0.130673 0)
(5.13577 0.151831 0)
(5.29453 0.168989 0)
(5.19676 0.197023 0)
(5.35895 0.219432 0)
(5.27421 0.256768 0)
(5.44317 0.286197 0)
(5.373 0.336266 0)
(5.55315 0.375213 0)
(5.49947 0.44296 0)
(5.69665 0.495037 0)
(5.66192 0.587733 0)
(5.88368 0.658305 0)
(5.8711 0.7869 0)
(6.12703 0.884167 0)
(6.14073 1.06562 0)
(6.44241 1.20247 0)
(6.48771 1.46397 0)
(6.84746 1.66111 0)
(6.93135 2.04843 0)
(7.35677 2.33901 0)
(7.64086 2.78818 0)
(7.5597 3.40439 0)
(7.8427 4.15267 0)
(8.09891 5.10044 0)
(8.28069 6.3032 0)
(8.49141 7.82652 0)
(8.16412 9.65631 0)
(7.23955 11.7206 0)
(5.31748 13.7082 0)
(2.24457 15.1062 0)
(4.91608 0.0181803 0)
(5.09218 0.018435 0)
(4.92498 0.0190819 0)
(5.10035 0.0198616 0)
(4.93504 0.0212 0)
(5.109 0.0225526 0)
(4.94681 0.0246752 0)
(5.11878 0.0266842 0)
(4.96092 0.0297391 0)
(5.13046 0.0325293 0)
(4.9781 0.036732 0)
(5.14499 0.0404784 0)
(4.99924 0.0461297 0)
(5.16352 0.05107 0)
(5.02548 0.0585823 0)
(5.18753 0.0650357 0)
(5.05826 0.0749706 0)
(5.21886 0.0833635 0)
(5.09946 0.0964869 0)
(5.25993 0.107391 0)
(5.15152 0.124753 0)
(5.31381 0.138941 0)
(5.21767 0.161999 0)
(5.38456 0.180528 0)
(5.3022 0.211327 0)
(5.47751 0.235667 0)
(5.41079 0.27714 0)
(5.59972 0.309379 0)
(5.55111 0.365811 0)
(5.76067 0.408996 0)
(5.73351 0.486825 0)
(5.97316 0.545535 0)
(5.97212 0.654734 0)
(6.25455 0.73609 0)
(6.28631 0.892683 0)
(6.62837 1.00816 0)
(6.70268 1.23903 0)
(7.12597 1.40765 0)
(7.25718 1.76029 0)
(7.78693 2.01412 0)
(8.11437 2.41421 0)
(8.18155 3.06613 0)
(8.63382 3.81182 0)
(9.11456 4.7915 0)
(9.59061 6.09192 0)
(10.3155 7.77071 0)
(10.4471 10.1178 0)
(10.0945 13.1504 0)
(8.0708 16.3015 0)
(3.70513 18.9411 0)
(4.91629 0.0139354 0)
(5.09251 0.0141287 0)
(4.92574 0.0146282 0)
(5.10124 0.0152203 0)
(4.9364 0.0162538 0)
(5.11052 0.0172813 0)
(4.94886 0.0189205 0)
(5.12103 0.0204475 0)
(4.9638 0.022807 0)
(5.13362 0.0249293 0)
(4.982 0.028176 0)
(5.14927 0.0310284 0)
(5.00442 0.0353954 0)
(5.16923 0.0391619 0)
(5.03229 0.0449694 0)
(5.19507 0.0498978 0)
(5.06716 0.0575823 0)
(5.2288 0.0640057 0)
(5.11106 0.074164 0)
(5.27299 0.0825316 0)
(5.16666 0.0959842 0)
(5.331 0.106908 0)
(5.23748 0.124795 0)
(5.40725 0.139118 0)
(5.3282 0.163049 0)
(5.50761 0.181958 0)
(5.44518 0.214244 0)
(5.63997 0.239441 0)
(5.59702 0.283478 0)
(5.81514 0.317472 0)
(5.79562 0.378397 0)
(6.04809 0.424995 0)
(6.05769 0.510857 0)
(6.36002 0.576007 0)
(6.40713 0.700006 0)
(6.78154 0.793274 0)
(6.87888 0.978324 0)
(7.35787 1.11552 0)
(7.52519 1.40422 0)
(8.15723 1.61218 0)
(8.5025 1.9171 0)
(8.76131 2.56501 0)
(9.39675 3.24756 0)
(10.1339 4.17641 0)
(10.9751 5.46792 0)
(12.4245 7.12874 0)
(13.3554 9.83699 0)
(13.6159 13.848 0)
(12.336 19.6147 0)
(7.51247 27.4794 0)
(4.91627 0.00945464 0)
(5.09286 0.00958722 0)
(4.92605 0.00992406 0)
(5.10194 0.01033 0)
(4.93706 0.011027 0)
(5.11161 0.0117313 0)
(4.94991 0.012837 0)
(5.12258 0.0138834 0)
(4.96531 0.0154753 0)
(5.13572 0.0169292 0)
(4.98407 0.0191205 0)
(5.15206 0.0210735 0)
(5.00721 0.0240224 0)
(5.1729 0.0265997 0)
(5.036 0.0305233 0)
(5.19988 0.0338931 0)
(5.07208 0.0390887 0)
(5.2351 0.0434769 0)
(5.1176 0.050351 0)
(5.28129 0.0560619 0)
(5.17539 0.065176 0)
(5.34202 0.0726233 0)
(5.24921 0.0847609 0)
(5.42202 0.0945158 0)
(5.34415 0.110789 0)
(5.52764 0.123654 0)
(5.46708 0.145674 0)
(5.66751 0.162807 0)
(5.62752 0.192968 0)
(5.85361 0.216081 0)
(5.8388 0.258057 0)
(6.10286 0.289777 0)
(6.11998 0.349421 0)
(6.43976 0.393914 0)
(6.49905 0.480998 0)
(6.90089 0.545121 0)
(7.01822 0.676878 0)
(7.54299 0.77233 0)
(7.7435 0.981143 0)
(8.45823 1.12867 0)
(8.80659 1.31717 0)
(9.25559 1.89982 0)
(10.0609 2.44804 0)
(11.0522 3.21504 0)
(12.2827 4.32377 0)
(14.6048 5.66629 0)
(16.8141 8.2621 0)
(19.3894 12.5981 0)
(21.6696 21.689 0)
(18.6481 39.451 0)
(4.91642 0.0047939 0)
(5.09297 0.00486046 0)
(4.92647 0.00503246 0)
(5.10233 0.00523626 0)
(4.93778 0.00559218 0)
(5.1123 0.00594592 0)
(4.95098 0.00651052 0)
(5.12363 0.00703633 0)
(4.9668 0.00784924 0)
(5.1372 0.00858028 0)
(4.98608 0.00969926 0)
(5.15409 0.0106822 0)
(5.00986 0.0121881 0)
(5.17562 0.0134868 0)
(5.03947 0.0154906 0)
(5.2035 0.0171912 0)
(5.07659 0.019845 0)
(5.23988 0.0220635 0)
(5.12345 0.0255754 0)
(5.28757 0.0284692 0)
(5.18296 0.0331266 0)
(5.35027 0.0369105 0)
(5.25902 0.0431149 0)
(5.43285 0.0480873 0)
(5.35687 0.0564082 0)
(5.54192 0.062991 0)
(5.48369 0.0742534 0)
(5.68648 0.0830578 0)
(5.64941 0.0984876 0)
(5.87914 0.110423 0)
(5.86809 0.131902 0)
(6.13792 0.148362 0)
(6.16008 0.178904 0)
(6.48938 0.202092 0)
(6.55578 0.246778 0)
(6.97411 0.280299 0)
(7.10224 0.348237 0)
(7.657 0.39822 0)
(7.87549 0.506838 0)
(8.64733 0.584324 0)
(8.97243 0.622747 0)
(9.60992 1.09082 0)
(10.5471 1.43292 0)
(11.7421 1.91934 0)
(13.3019 2.63923 0)
(16.3936 3.30438 0)
(19.9002 5.0707 0)
(25.1599 8.24558 0)
(31.9094 13.8117 0)
(48.4297 25.2875 0)
(4.91634 3.84278e-10 0)
(5.0931 3.83792e-10 0)
(4.92642 3.82481e-10 0)
(5.1025 3.79919e-10 0)
(4.93776 3.76604e-10 0)
(5.11252 3.73418e-10 0)
(4.95099 3.69635e-10 0)
(5.12391 3.65472e-10 0)
(4.96684 3.61781e-10 0)
(5.13755 3.58251e-10 0)
(4.98615 3.54679e-10 0)
(5.15452 3.50573e-10 0)
(5.00999 3.48264e-10 0)
(5.17617 3.44684e-10 0)
(5.03966 3.42095e-10 0)
(5.20419 3.39546e-10 0)
(5.0769 3.37099e-10 0)
(5.24078 3.34688e-10 0)
(5.12394 3.32603e-10 0)
(5.28878 3.29752e-10 0)
(5.18375 3.29022e-10 0)
(5.35192 3.26472e-10 0)
(5.26029 3.26895e-10 0)
(5.4352 3.24643e-10 0)
(5.35891 3.2714e-10 0)
(5.54533 3.24807e-10 0)
(5.48697 3.28065e-10 0)
(5.69155 3.26927e-10 0)
(5.65465 3.33583e-10 0)
(5.88676 3.31457e-10 0)
(5.87643 3.42534e-10 0)
(6.14949 3.39621e-10 0)
(6.17329 3.56105e-10 0)
(6.50711 3.51896e-10 0)
(6.57666 3.76657e-10 0)
(7.00158 3.6761e-10 0)
(7.13525 4.03877e-10 0)
(7.70039 3.8757e-10 0)
(7.92821 4.42004e-10 0)
(8.71825 4.09104e-10 0)
(8.99813 -0.113793 0)
(9.78466 0.177576 0)
(10.7834 0.259764 0)
(12.0789 0.37274 0)
(13.807 0.537031 0)
(17.2313 0.274843 0)
(21.3787 0.5476 0)
(27.9909 0.984575 0)
(36.9571 0.205655 0)
(54.9857 0.146747 0)
(4.91642 -0.0047939 0)
(5.09297 -0.00486046 0)
(4.92647 -0.00503246 0)
(5.10233 -0.00523626 0)
(4.93778 -0.00559218 0)
(5.1123 -0.00594592 0)
(4.95098 -0.00651052 0)
(5.12363 -0.00703632 0)
(4.9668 -0.00784924 0)
(5.1372 -0.00858028 0)
(4.98608 -0.00969926 0)
(5.15409 -0.0106822 0)
(5.00986 -0.0121881 0)
(5.17562 -0.0134868 0)
(5.03947 -0.0154906 0)
(5.2035 -0.0171912 0)
(5.07659 -0.019845 0)
(5.23988 -0.0220635 0)
(5.12345 -0.0255754 0)
(5.28757 -0.0284692 0)
(5.18296 -0.0331266 0)
(5.35027 -0.0369105 0)
(5.25902 -0.0431149 0)
(5.43285 -0.0480873 0)
(5.35687 -0.0564082 0)
(5.54192 -0.062991 0)
(5.48369 -0.0742534 0)
(5.68648 -0.0830578 0)
(5.64941 -0.0984876 0)
(5.87914 -0.110423 0)
(5.86809 -0.131902 0)
(6.13792 -0.148362 0)
(6.16008 -0.178904 0)
(6.48938 -0.202092 0)
(6.55578 -0.246778 0)
(6.97411 -0.280299 0)
(7.10224 -0.348237 0)
(7.657 -0.39822 0)
(7.87549 -0.506838 0)
(8.64733 -0.584324 0)
(8.85841 -0.842143 0)
(9.74554 -0.754286 0)
(10.721 -0.944294 0)
(11.9805 -1.22516 0)
(13.6497 -1.6546 0)
(16.7892 -2.8114 0)
(20.5448 -4.12564 0)
(26.3391 -6.63537 0)
(33.8982 -13.3997 0)
(52.0024 -24.9608 0)
(4.91627 -0.00945464 0)
(5.09286 -0.00958722 0)
(4.92605 -0.00992406 0)
(5.10194 -0.01033 0)
(4.93706 -0.011027 0)
(5.11161 -0.0117313 0)
(4.94991 -0.012837 0)
(5.12258 -0.0138834 0)
(4.96531 -0.0154753 0)
(5.13572 -0.0169292 0)
(4.98407 -0.0191205 0)
(5.15206 -0.0210735 0)
(5.00721 -0.0240224 0)
(5.1729 -0.0265997 0)
(5.036 -0.0305233 0)
(5.19988 -0.0338931 0)
(5.07208 -0.0390887 0)
(5.2351 -0.0434769 0)
(5.1176 -0.050351 0)
(5.28129 -0.0560619 0)
(5.17539 -0.065176 0)
(5.34202 -0.0726233 0)
(5.24921 -0.0847609 0)
(5.42202 -0.0945158 0)
(5.34415 -0.110789 0)
(5.52764 -0.123654 0)
(5.46708 -0.145674 0)
(5.66751 -0.162807 0)
(5.62752 -0.192968 0)
(5.85361 -0.216081 0)
(5.8388 -0.258057 0)