/*--------------------------------*- C++ -*----------------------------------*\
| =========                 |                                                 |
| \\      /  F ield         | foam-extend: Open Source CFD                    |
|  \\    /   O peration     | Version:     4.0                                |
|   \\  /    A nd           | Web:         http://www.foam-extend.org         |
|    \\/     M anipulation  |                                                 |
\*---------------------------------------------------------------------------*/
FoamFile
{
    version     2.0;
    format      ascii;
    class       volScalarField;
    location    "0.0017";
    object      k;
}
// * * * * * * * * * * * * * * * * * * * * * * * * * * * * * * * * * * * * * //

dimensions      [0 2 -2 0 0 0 0];

internalField   nonuniform List<scalar> 
28770
(
9.02194e-08
2.12888e-07
3.18273e-07
4.14113e-07
5.01243e-07
5.81577e-07
6.55403e-07
7.23007e-07
7.84517e-07
8.39998e-07
8.89482e-07
9.32982e-07
9.70503e-07
1.00205e-06
1.02763e-06
1.04726e-06
1.06095e-06
1.06873e-06
1.07066e-06
1.06679e-06
1.05722e-06
1.04204e-06
1.02141e-06
9.95518e-07
9.64583e-07
9.28881e-07
8.88737e-07
8.44532e-07
7.967e-07
7.45735e-07
6.92181e-07
6.36637e-07
5.79746e-07
5.22186e-07
4.64665e-07
4.07906e-07
3.52635e-07
2.99565e-07
2.49385e-07
2.0274e-07
1.60215e-07
1.22313e-07
8.94349e-08
6.18529e-08
3.96886e-08
2.28877e-08
1.11948e-08
4.11609e-09
8.42945e-10
5.67032e-11
2.64877e-06
6.35655e-06
9.48492e-06
1.2332e-05
1.49238e-05
1.73124e-05
1.9508e-05
2.15187e-05
2.33481e-05
2.49983e-05
2.647e-05
2.77637e-05
2.88795e-05
2.98176e-05
3.05782e-05
3.11615e-05
3.15683e-05
3.17994e-05
3.18562e-05
3.17406e-05
3.14552e-05
3.1003e-05
3.03887e-05
2.96176e-05
2.86966e-05
2.76337e-05
2.64387e-05
2.51229e-05
2.36992e-05
2.21822e-05
2.05883e-05
1.89352e-05
1.7242e-05
1.5529e-05
1.38172e-05
1.21282e-05
1.04835e-05
8.90431e-06
7.41124e-06
6.02344e-06
4.7583e-06
3.63082e-06
2.65292e-06
1.83273e-06
1.17387e-06
6.7474e-07
3.27756e-07
1.18289e-07
2.24564e-08
8.73561e-10
1.75243e-05
4.39932e-05
6.57093e-05
8.5286e-05
0.000103129
0.000119565
0.000134679
0.000148521
0.000161117
0.000172479
0.000182611
0.000191517
0.000199197
0.000205652
0.000210882
0.000214892
0.000217683
0.000219264
0.000219643
0.000218832
0.000216851
0.00021372
0.000209471
0.000204141
0.000197777
0.000190435
0.000182182
0.000173095
0.000163265
0.000152792
0.00014179
0.000130379
0.000118693
0.000106872
9.50597e-05
8.34057e-05
7.20588e-05
6.11659e-05
5.08683e-05
4.12987e-05
3.25772e-05
2.48076e-05
1.80726e-05
1.24286e-05
7.90125e-06
4.48068e-06
2.11775e-06
7.18902e-07
1.20397e-07
4.26873e-09
5.82052e-05
0.000153634
0.000231659
0.000300816
0.000363538
0.000421176
0.000474156
0.000522678
0.000566831
0.000606654
0.000642166
0.000673371
0.000700274
0.000722874
0.000741175
0.000755186
0.000764921
0.0007704
0.000771656
0.000768735
0.000761698
0.000750622
0.000735616
0.000716812
0.000694372
0.000668495
0.000639416
0.000607409
0.000572789
0.000535912
0.000497173
0.000457004
0.000415871
0.000374265
0.000332699
0.000291695
0.000251778
0.000213467
0.000177258
0.000143621
0.00011298
8.57031e-05
6.20861e-05
4.2335e-05
2.65516e-05
1.47212e-05
6.6967e-06
2.14005e-06
3.35453e-07
1.16017e-08
0.000137431
0.000376787
0.000575984
0.000750638
0.000907733
0.00105135
0.00118306
0.00130357
0.00141318
0.00151201
0.00160011
0.00167751
0.00174421
0.0018002
0.0018455
0.00188012
0.00190411
0.0019175
0.00192039
0.00191287
0.00189511
0.00186729
0.00182969
0.00178263
0.00172651
0.00166184
0.00158919
0.00150924
0.00142279
0.00133072
0.00123402
0.00113377
0.00103112
0.000927316
0.000823623
0.000721354
0.00062182
0.000526317
0.000436092
0.000352321
0.000276076
0.000208295
0.000149743
0.000100975
6.22975e-05
3.3717e-05
1.48302e-05
4.55335e-06
6.92158e-07
2.37048e-08
0.000266691
0.000749996
0.00116228
0.00152326
0.00184575
0.0021387
0.00240633
0.00265064
0.00287256
0.0030725
0.00325064
0.00340703
0.00354171
0.00365469
0.00374598
0.00381561
0.00386366
0.00389024
0.00389548
0.00387963
0.00384298
0.00378593
0.003709
0.00361287
0.00349836
0.00336647
0.00321838
0.00305548
0.00287936
0.00269185
0.00249493
0.00229082
0.00208188
0.00187062
0.00165963
0.0014516
0.00124921
0.0010551
0.000871834
0.000701834
0.00054733
0.000410296
0.000292378
0.000194802
0.00011825
6.2667e-05
2.68846e-05
8.05637e-06
1.20579e-06
4.10941e-08
0.000455723
0.00130316
0.00204357
0.00269522
0.00327565
0.0038
0.00427681
0.00471069
0.00510395
0.00545775
0.00577262
0.00604881
0.00628642
0.00648552
0.00664615
0.00676839
0.00685235
0.00689823
0.00690628
0.00687692
0.00681065
0.00670818
0.00657045
0.00639864
0.00619419
0.00595888
0.0056948
0.00540444
0.00509063
0.00475658
0.00440587
0.00404242
0.00367045
0.00329445
0.00291906
0.00254909
0.00218932
0.00184453
0.00151932
0.00121809
0.000944913
0.000703454
0.000496793
0.0003272
0.000195795
0.000102049
4.30249e-05
1.27024e-05
1.88452e-06
6.40429e-08
0.000711903
0.0020585
0.00325928
0.00432525
0.00527521
0.00613031
0.0069046
0.0076066
0.00824114
0.00881081
0.00931699
0.00976038
0.0101414
0.0104601
0.0107168
0.0109116
0.0110447
0.0111163
0.0111271
0.0110774
0.0109683
0.0108008
0.0105764
0.010297
0.00996501
0.00958316
0.00915489
0.00868419
0.00817565
0.00763448
0.00706647
0.006478
0.00587592
0.00526752
0.00466041
0.00406238
0.00348132
0.00292502
0.00240107
0.00191674
0.00147881
0.0010934
0.00076563
0.000499106
0.000295138
0.000151898
6.32774e-05
1.85047e-05
2.73024e-06
9.26053e-08
0.00103989
0.00302983
0.00483417
0.00645138
0.00789703
0.0091964
0.0103692
0.0114288
0.0123837
0.0132388
0.0139971
0.0146601
0.0152289
0.0157039
0.0160856
0.0163743
0.0165703
0.0166741
0.0166864
0.0166082
0.0164407
0.0161854
0.0158448
0.0154216
0.0149192
0.014342
0.0136951
0.0129844
0.0122169
0.0114004
0.0105437
0.0096565
0.00874911
0.00783265
0.0069187
0.00601916
0.00514608
0.0043114
0.00352677
0.00280333
0.00215147
0.00158056
0.00109832
0.000709754
0.000415709
0.000211936
8.75516e-05
2.5442e-05
3.73995e-06
1.26667e-07
0.00144144
0.0042222
0.00677753
0.00908941
0.0111654
0.013032
0.0147133
0.0162281
0.0175892
0.0188048
0.0198802
0.0208186
0.021622
0.0222915
0.0228281
0.0232323
0.0235049
0.0236467
0.0236585
0.0235417
0.0232982
0.0229301
0.0224408
0.0218341
0.021115
0.0202897
0.0193652
0.0183501
0.0172544
0.0160893
0.0148673
0.0136023
0.0123092
0.011004
0.00970352
0.00842489
0.0071856
0.00600299
0.00489388
0.0038743
0.00295904
0.00216133
0.00149191
0.000957164
0.000556389
0.00028164
0.000115653
3.34628e-05
4.90665e-06
1.66018e-07
0.0019152
0.0056311
0.00908233
0.0122316
0.0150744
0.0176343
0.0199385
0.0220101
0.0238667
0.0255205
0.02698
0.0282506
0.0293358
0.0302382
0.0309592
0.0315001
0.0318622
0.0320464
0.0320544
0.0318878
0.0315492
0.0310416
0.0303694
0.0295379
0.0285538
0.0274253
0.0261623
0.0247765
0.0232812
0.021692
0.020026
0.0183023
0.0165415
0.0147658
0.0129981
0.0112626
0.00958329
0.00798431
0.00648877
0.00511837
0.00389274
0.00282906
0.0019415
0.00123834
0.000715646
0.000360354
0.000147347
4.25017e-05
6.21966e-06
2.10245e-07
0.00245682
0.00724271
0.0117257
0.0158477
0.0195883
0.022965
0.0260048
0.0287342
0.0311752
0.0333445
0.0352543
0.0369128
0.038326
0.0394979
0.0404313
0.0411285
0.0415913
0.0418215
0.041821
0.0415924
0.0411388
0.0404644
0.0395748
0.0384769
0.0371795
0.0356934
0.0340314
0.0322089
0.0302438
0.0281562
0.0259691
0.0237077
0.0213995
0.0190738
0.0167617
0.014495
0.0123063
0.0102274
0.0082889
0.00651865
0.0049408
0.00357562
0.00244084
0.00154925
0.000891617
0.000447527
0.000182567
5.25701e-05
7.68068e-06
2.59102e-07
0.00305906
0.00903431
0.0146698
0.0198859
0.0246434
0.0289504
0.0328312
0.0363136
0.0394234
0.0421814
0.0446038
0.0467026
0.0484864
0.0499616
0.0511328
0.0520034
0.0525763
0.0528541
0.0528397
0.0525362
0.0519479
0.05108
0.0499396
0.0485355
0.0468789
0.0449833
0.0428653
0.0405443
0.0380431
0.0353878
0.0326077
0.0297354
0.0268062
0.0238582
0.0209313
0.018067
0.0153073
0.0126935
0.0102644
0.00805428
0.0060906
0.0043934
0.00298322
0.00188482
0.00108184
0.000542679
0.000221525
6.38534e-05
9.33699e-06
3.15353e-07
0.00371194
0.0109746
0.0178624
0.0242735
0.0301484
0.0354837
0.0402973
0.0446168
0.0484701
0.0518819
0.0548724
0.0574576
0.0596495
0.0614571
0.0628872
0.0639451
0.0646351
0.0649609
0.0649262
0.0645354
0.0637936
0.0627076
0.0612861
0.0595399
0.0574827
0.0551315
0.0525066
0.0496323
0.0465369
0.0432531
0.0398175
0.0362708
0.0326575
0.0290253
0.0254245
0.0219072
0.0185264
0.0153339
0.0123785
0.00970161
0.00733114
0.00527743
0.00356399
0.00224138
0.00128507
0.000646216
0.000264859
7.66132e-05
1.11995e-05
3.76165e-07
0.00440322
0.0130251
0.0212389
0.0289205
0.0359902
0.0424303
0.04825
0.0534743
0.0581321
0.062251
0.065855
0.0689641
0.071594
0.0737569
0.0754624
0.0767178
0.0775291
0.0779016
0.0778402
0.0773505
0.0764389
0.0751136
0.0733851
0.0712666
0.0687747
0.0659297
0.0627564
0.0592843
0.0555478
0.0515867
0.0474458
0.0431748
0.0388281
0.034464
0.0301441
0.0259324
0.0218936
0.018092
0.0145886
0.0114353
0.00865792
0.00621776
0.00417286
0.00261734
0.00150683
0.000764951
0.000317182
9.29147e-05
1.36706e-05
4.38159e-07
0.00511867
0.0151413
0.0247248
0.0337236
0.0420377
0.0496324
0.0565081
0.0626845
0.0681899
0.0730538
0.0773037
0.0809631
0.0840517
0.0865854
0.0885766
0.0900352
0.0909694
0.0913861
0.0912917
0.0906934
0.0895987
0.0880178
0.0859631
0.08345
0.0804983
0.0771321
0.0733807
0.0692794
0.064869
0.0601971
0.0553169
0.0502881
0.0451756
0.040049
0.0349818
0.0300499
0.0253308
0.0209023
0.0168415
0.0132247
0.01122
0.00759519
0.00512492
0.00325932
0.00193867
0.00103505
0.000463191
0.000154458
2.95878e-05
1.28289e-06
0.00584245
0.0172742
0.0282382
0.0385688
0.0481438
0.0569135
0.0648687
0.0720205
0.0783955
0.0840241
0.0889363
0.0931593
0.0967166
0.0996277
0.101908
0.103571
0.104627
0.105084
0.104951
0.104237
0.102951
0.101104
0.0987115
0.0957911
0.0923658
0.0884637
0.0841189
0.0793724
0.0742721
0.0688734
0.0632388
0.0574378
0.0515465
0.045646
0.0398217
0.0341615
0.0287546
0.023691
0.0190601
0.0149377
0.0125236
0.00850707
0.0056579
0.00359031
0.00215609
0.00116573
0.000525946
0.000176546
3.36779e-05
1.34329e-06
0.00655766
0.0193722
0.0316925
0.0433345
0.0541545
0.06409
0.0731175
0.0812415
0.0884843
0.0948766
0.10045
0.105236
0.109259
0.112545
0.115111
0.116974
0.118147
0.118641
0.118466
0.117632
0.11615
0.114034
0.111301
0.107972
0.104072
0.0996333
0.0946955
0.0893052
0.0835173
0.0773954
0.0710112
0.0644444
0.057782
0.0511168
0.0445459
0.0381684
0.0320837
0.0263903
0.0211853
0.0165422
0.013738
0.00930633
0.00615067
0.00391314
0.00236987
0.00128677
0.000580207
0.000196546
3.80714e-05
1.54207e-06
0.00724671
0.0213827
0.0350004
0.047899
0.0599162
0.070973
0.0810349
0.0901007
0.0981853
0.105319
0.111534
0.116864
0.121339
0.124986
0.127828
0.129882
0.131165
0.13169
0.13147
0.130516
0.128841
0.126461
0.123395
0.119667
0.115304
0.110344
0.10483
0.0988157
0.092362
0.0855408
0.0784328
0.0711277
0.0637234
0.0563239
0.0490376
0.0419747
0.0352441
0.0289519
0.0232026
0.0180787
0.0149546
0.0101351
0.00670334
0.00428481
0.00260682
0.0013002
0.000565584
0.00018999
3.46467e-05
1.06812e-06
0.00789188
0.0232539
0.0380761
0.0521429
0.0652758
0.0773775
0.0884084
0.0983563
0.107231
0.115061
0.121879
0.127721
0.13262
0.136605
0.139702
0.141933
0.143317
0.143868
0.143602
0.142532
0.140673
0.138042
0.13466
0.130554
0.125755
0.120304
0.114249
0.107648
0.100569
0.093093
0.0853079
0.0773134
0.0692173
0.0611344
0.0531838
0.045486
0.0381597
0.0313191
0.0250771
0.0195305
0.0161222
0.0109963
0.007297
0.00468432
0.00285365
0.00141837
0.000630711
0.00021401
3.99173e-05
1.32634e-06
0.00847578
0.024937
0.0408391
0.0559542
0.0700896
0.0831343
0.0950359
0.105779
0.11537
0.123831
0.131195
0.1375
0.142781
0.14707
0.150397
0.152786
0.154258
0.15483
0.154519
0.153341
0.151312
0.148451
0.144782
0.140332
0.135136
0.129239
0.122692
0.11556
0.107917
0.0998493
0.0914535
0.0828381
0.0741203
0.0654244
0.0568792
0.0486145
0.0407583
0.0334327
0.0267583
0.0208419
0.0171631
0.0118039
0.00785292
0.00505265
0.00308218
0.00153216
0.000685214
0.00023199
4.43867e-05
1.50204e-06
0.00898206
0.0263873
0.0432165
0.0592318
0.0742289
0.0880857
0.100737
0.112165
0.122374
0.13138
0.139216
0.14592
0.151531
0.156083
0.159606
0.162129
0.163675
0.164262
0.16391
0.162636
0.160457
0.157395
0.153474
0.148724
0.143184
0.1369
0.129928
0.122337
0.114206
0.105627
0.0967051
0.0875556
0.0783038
0.0690824
0.0600285
0.0512803
0.0429731
0.0352364
0.0281962
0.0219643
0.018035
0.0124941
0.00832086
0.00536074
0.00327706
0.00163464
0.000737872
0.000254247
4.97088e-05
1.62017e-06
0.00939601
0.0275663
0.0451457
0.0618892
0.0775837
0.0920982
0.105359
0.117339
0.128046
0.137495
0.145715
0.152743
0.15862
0.163383
0.167064
0.169694
0.171296
0.171893
0.171505
0.170149
0.167846
0.164618
0.16049
0.155495
0.149674
0.143074
0.135755
0.12779
0.119263
0.11027
0.100922
0.0913403
0.0816574
0.0720126
0.0625499
0.0534138
0.044746
0.0366812
0.0293499
0.022867
0.0187266
0.0130556
0.00870052
0.00561177
0.00344046
0.00173002
0.000787182
0.000276448
4.93911e-05
2.98347e-06
0.00970544
0.0284431
0.0465778
0.0638587
0.0800676
0.095067
0.108777
0.121165
0.132235
0.142008
0.150511
0.157778
0.163849
0.168765
0.172561
0.175266
0.176908
0.177509
0.17709
0.175672
0.173274
0.169919
0.165636
0.160458
0.154426
0.147591
0.140016
0.131774
0.122953
0.113655
0.103993
0.0940936
0.0840944
0.0741397
0.0643785
0.0549602
0.0460306
0.0377286
0.030188
0.023527
0.0192245
0.0134912
0.00900024
0.00581075
0.00357218
0.00180821
0.000835095
0.00030115
5.70416e-05
3.69265e-06
0.00990341
0.0290029
0.047492
0.0651145
0.081649
0.0969545
0.110948
0.123592
0.134887
0.14486
0.153538
0.160954
0.167146
0.172155
0.176018
0.178768
0.18043
0.18103
0.180589
0.179128
0.176667
0.17323
0.168847
0.16355
0.157383
0.150399
0.14266
0.134242
0.125237
0.115746
0.105887
0.0957891
0.0855926
0.0754452
0.0654989
0.0559063
0.046816
0.0383692
0.0307022
0.0239359
0.0195125
0.0137902
0.00921283
0.00595164
0.00366353
0.0018606
0.000873781
0.000328717
9.19069e-05
8.89025e-06
0.00997869
0.0292161
0.0478397
0.0655896
0.0822433
0.097659
0.111753
0.124486
0.135858
0.145895
0.15463
0.162094
0.168323
0.17336
0.177242
0.18
0.181664
0.182258
0.181803
0.18032
0.177832
0.174361
0.169937
0.164594
0.158376
0.151336
0.143536
0.135055
0.125983
0.116424
0.106497
0.0963304
0.0860666
0.0758543
0.0658466
0.056197
0.0470551
0.038563
0.0308574
0.0240602
0.0195578
0.0139223
0.00930955
0.00601501
0.00370446
0.00188585
0.00089126
0.000344723
0.000104618
1.6498e-05
0.00993118
0.0290814
0.0476172
0.0652773
0.0818408
0.0971675
0.111175
0.123827
0.135124
0.145092
0.153764
0.161172
0.167354
0.172351
0.1762
0.178933
0.180579
0.181161
0.180701
0.179221
0.17674
0.173285
0.168882
0.163567
0.157383
0.150381
0.142626
0.134195
0.125177
0.115676
0.10581
0.0957066
0.0855071
0.0753591
0.0654148
0.0558263
0.0467424
0.0383043
0.0306479
0.023894
0.0193546
0.0138628
0.00926764
0.00598609
0.00368402
0.00186733
0.000877751
0.000333768
9.39663e-05
1.01263e-05
0.00976157
0.0286006
0.0468261
0.0641792
0.0804434
0.0954827
0.109219
0.12162
0.132691
0.142456
0.150947
0.158198
0.164248
0.169139
0.172905
0.175578
0.177186
0.177752
0.177297
0.175842
0.173406
0.170014
0.165694
0.16048
0.154413
0.147545
0.139939
0.13167
0.122826
0.113508
0.103832
0.0939225
0.083918
0.0739628
0.0642058
0.0547963
0.0458798
0.0375949
0.0300752
0.0234396
0.0189221
0.0136188
0.00909454
0.00586946
0.00360581
0.00181262
0.000840121
0.000306717
7.63169e-05
3.88868e-06
0.00948016
0.0278005
0.0455113
0.0623572
0.0781297
0.0926995
0.105995
0.117992
0.128699
0.138138
0.146339
0.153342
0.159186
0.16391
0.167549
0.170132
0.171685
0.172231
0.171789
0.170379
0.168021
0.164738
0.160556
0.155509
0.149637
0.14299
0.135628
0.127624
0.119063
0.110043
0.100674
0.091078
0.0813879
0.0717431
0.0622873
0.0531649
0.0445167
0.0364773
0.029177
0.0227332
0.0182915
0.0132264
0.00882312
0.00568741
0.00348393
0.00173429
0.000793108
0.000280521
6.58349e-05
3.03888e-06
0.00908891
0.0266851
0.0436802
0.059824
0.0749182
0.0888429
0.101535
0.112982
0.12319
0.132183
0.139994
0.146664
0.152232
0.156734
0.160202
0.162665
0.164148
0.164669
0.164249
0.162906
0.160658
0.157526
0.153537
0.148721
0.143118
0.136774
0.129748
0.122108
0.113934
0.105321
0.0963735
0.0872067
0.0779467
0.0687261
0.0596819
0.0509518
0.0426707
0.0349675
0.027968
0.0217879
0.017477
0.0127065
0.0084719
0.00545378
0.00332949
0.00164064
0.00074268
0.000257564
5.08106e-05
1.70748e-06
0.00860156
0.0252879
0.0413851
0.0566503
0.0708981
0.0840203
0.0959679
0.10673
0.116321
0.124765
0.132099
0.138362
0.143591
0.147821
0.151082
0.1534
0.154797
0.155292
0.154902
0.153642
0.151531
0.148589
0.14484
0.140312
0.135042
0.129075
0.122465
0.115276
0.107584
0.099476
0.09105
0.0824147
0.0736875
0.064993
0.0564594
0.0482165
0.0403917
0.0331071
0.0264827
0.0206312
0.0164958
0.0120652
0.0080407
0.00516934
0.00314677
0.00153728
0.00068985
0.000234578
4.40776e-05
1.48077e-06
0.0080321
0.0236459
0.0386858
0.0529191
0.0661756
0.0783611
0.0894414
0.0994103
0.108284
0.116094
0.122876
0.12867
0.13351
0.137428
0.140452
0.142604
0.143904
0.144369
0.144014
0.142854
0.140904
0.138182
0.134712
0.13052
0.125638
0.12011
0.113984
0.107319
0.100187
0.0926657
0.0848469
0.0768302
0.0687238
0.0606423
0.0527046
0.0450309
0.0377398
0.0309454
0.0247599
0.0192887
0.0153585
0.0112991
0.00752083
0.00482698
0.0029329
0.00142597
0.00063584
0.000216821
3.97379e-05
1.27933e-06
0.00739671
0.0218029
0.0356538
0.0487295
0.0608771
0.0720212
0.082134
0.0912212
0.099303
0.106413
0.112589
0.117867
0.122279
0.125854
0.128616
0.130586
0.13178
0.132213
0.131898
0.130848
0.129076
0.126601
0.12344
0.119619
0.115169
0.110127
0.104537
0.0984554
0.0919437
0.0850749
0.0779308
0.0706019
0.0631862
0.0557878
0.0485147
0.0414769
0.0347834
0.0285396
0.0228489
0.0178071
0.0141363
0.0104397
0.00692746
0.00443227
0.00269138
0.00130766
0.00057096
0.000193268
3.54657e-05
1.07571e-06
0.00671275
0.0198075
0.0323692
0.044193
0.0551455
0.0651691
0.0742475
0.0823917
0.0896299
0.0959969
0.101529
0.106259
0.110217
0.113428
0.115913
0.117689
0.118771
0.119169
0.118897
0.117964
0.116383
0.114169
0.111339
0.107915
0.103925
0.0994017
0.0943861
0.0889263
0.0830785
0.0769074
0.0704858
0.063894
0.0572193
0.0505546
0.0439967
0.0376443
0.0315964
0.0259498
0.0208006
0.0162387
0.0128925
0.00956202
0.00632942
0.00402993
0.00244218
0.00132315
0.000593656
0.000203057
4.0046e-05
1.66509e-06
0.00599813
0.0177117
0.0289178
0.0394293
0.0491349
0.0579903
0.0659943
0.0731644
0.0795326
0.0851343
0.0900036
0.0941708
0.097662
0.100499
0.102698
0.104274
0.105239
0.105602
0.105373
0.104561
0.103176
0.101231
0.0987417
0.0957277
0.0922127
0.0882263
0.0838041
0.0789882
0.073828
0.0683799
0.0627075
0.0568811
0.0509769
0.0450762
0.039264
0.0336277
0.0282559
0.0232369
0.0186623
0.014627
0.0116561
0.00874243
0.00579537
0.00367623
0.00221492
0.00120114
0.000542782
0.000182588
3.4925e-05
1.39288e-06
0.00527072
0.0155689
0.0253883
0.0345616
0.0430004
0.050676
0.0575965
0.0637883
0.0692852
0.0741216
0.0783288
0.0819335
0.0849578
0.0874193
0.089332
0.0907071
0.0915537
0.0918796
0.0916922
0.0909993
0.0898098
0.0881344
0.0859866
0.0833832
0.080345
0.0768974
0.0730711
0.0689025
0.064434
0.0597139
0.0547968
0.0497427
0.0446171
0.0394896
0.0344335
0.0295242
0.0248391
0.0204567
0.016462
0.0129516
0.0102656
0.0079037
0.00529495
0.00335747
0.00200717
0.00107937
0.00048523
0.00016207
3.07403e-05
1.23537e-06
0.00454788
0.0134318
0.0218691
0.029714
0.036899
0.0434129
0.0492722
0.0545086
0.0591565
0.0632481
0.0668111
0.0698683
0.0724374
0.0745325
0.0761644
0.0773416
0.0780711
0.0783586
0.0782103
0.0776322
0.0766318
0.0752182
0.0734028
0.0711997
0.0686267
0.0657054
0.0624617
0.0589263
0.0551349
0.0511283
0.046952
0.0426567
0.0382971
0.0339316
0.0296217
0.0254312
0.0214251
0.0176695
0.0142353
0.0111999
0.0084993
0.00608246
0.00408096
0.00255885
0.00147712
0.000751466
0.000311398
9.12715e-05
1.33924e-05
4.28451e-07
0.00384598
0.0113511
0.0184445
0.0250038
0.0309819
0.036382
0.0412293
0.0455575
0.0494
0.0527856
0.055738
0.0582753
0.0604116
0.0621574
0.0635207
0.0645077
0.0651234
0.0653722
0.0652586
0.0647877
0.0639654
0.0627993
0.0612988
0.0594757
0.0573449
0.0549241
0.052235
0.0493029
0.0461573
0.0428315
0.0393633
0.0357939
0.0321682
0.0285342
0.0249421
0.0214442
0.0180931
0.0149402
0.0120371
0.00944688
0.0071612
0.00515019
0.003483
0.00219534
0.00126244
0.000635653
0.000260646
7.53543e-05
1.1009e-05
3.70353e-07
0.0031799
0.00937315
0.0151921
0.0205384
0.0253851
0.0297469
0.0336549
0.037143
0.0402417
0.0429755
0.0453635
0.0474196
0.0491543
0.050575
0.0516873
0.0524955
0.0530032
0.0532134
0.0531296
0.0527558
0.0520966
0.0511583
0.0499484
0.0484767
0.0467551
0.0447982
0.0426234
0.0402512
0.0377053
0.0350126
0.0322032
0.0293103
0.0263697
0.0234196
0.0205002
0.0176532
0.0149209
0.0123437
0.00995698
0.00780603
0.00590656
0.0042618
0.00289891
0.00183352
0.00105391
0.000528977
0.000215907
6.21629e-05
9.06947e-06
3.05612e-07
0.0025626
0.00753845
0.0121799
0.0164122
0.020227
0.0236481
0.026709
0.0294414
0.0318717
0.0340195
0.0358992
0.0375211
0.0388923
0.0400177
0.0409011
0.0415453
0.0419527
0.0421254
0.0420661
0.0417776
0.0412638
0.0405295
0.0395807
0.0384252
0.0370725
0.035534
0.0338235
0.0319572
0.0299536
0.0278338
0.0256212
0.0233418
0.0210233
0.0186954
0.0163892
0.0141368
0.0119711
0.00992435
0.00802294
0.00629743
0.00476881
0.00344994
0.00235604
0.00149521
0.000860912
0.000432187
0.000176249
5.06904e-05
7.39217e-06
2.4908e-07
0.00200484
0.00588066
0.00946381
0.0127028
0.0156048
0.0181992
0.0205188
0.0225914
0.0244381
0.0260736
0.027508
0.0287483
0.0297989
0.0306632
0.0313432
0.0318407
0.0321574
0.0322947
0.0322544
0.0320389
0.0316509
0.0310942
0.0303735
0.0294947
0.0284652
0.0272936
0.0259907
0.0245686
0.0230415
0.0214254
0.0197382
0.0179992
0.0162296
0.0144516
0.0126885
0.0109642
0.00930315
0.00772989
0.00626517
0.00493011
0.0037427
0.0027165
0.00186264
0.00118681
0.000685564
0.00034495
0.000140866
4.05421e-05
5.91372e-06
1.99258e-07
0.00151462
0.00442479
0.0070854
0.00946703
0.011588
0.0134799
0.0151719
0.0166864
0.0180389
0.0192396
0.020295
0.0212094
0.0219855
0.0226251
0.0231295
0.0234997
0.0237367
0.0238416
0.0238156
0.0236604
0.023378
0.0229714
0.0224439
0.0218001
0.0210452
0.0201858
0.0192297
0.018186
0.017065
0.0158784
0.0146393
0.0133619
0.0120615
0.0107542
0.00945698
0.00818695
0.00696154
0.00579837
0.00471315
0.00372078
0.00283473
0.00206611
0.0014235
0.000911588
0.000529097
0.00026731
0.0001095
3.15771e-05
4.60996e-06
1.55337e-07
0.00109706
0.00318694
0.00507118
0.00673969
0.00821758
0.00953454
0.0107142
0.0117729
0.0127208
0.0135644
0.0143076
0.0149526
0.015501
0.0159536
0.0163112
0.0165744
0.0167439
0.0168202
0.0168043
0.0166973
0.0165008
0.0162167
0.0158475
0.0153964
0.0148672
0.0142645
0.0135937
0.0128614
0.0120747
0.011242
0.0103722
0.00947544
0.00856222
0.00764385
0.00673204
0.00583869
0.00497568
0.00415501
0.00338778
0.00268427
0.00205386
0.00150456
0.00104268
0.000671998
0.000392578
0.000199538
8.21438e-05
2.37678e-05
3.47514e-06
1.17118e-07
0.000754256
0.00217372
0.00343152
0.00453275
0.00550435
0.00637088
0.00714932
0.00785015
0.0084795
0.00904088
0.00953631
0.00996696
0.0103335
0.0106365
0.0108763
0.0110532
0.0111676
0.0112199
0.0112108
0.0111409
0.0110114
0.0108235
0.010579
0.0102799
0.00992887
0.00952894
0.0090838
0.0085977
0.00807551
0.00752268
0.00694526
0.00634982
0.00574338
0.00513338
0.0045275
0.00393358
0.00335937
0.0028126
0.00230054
0.00182993
0.00140686
0.00103659
0.000723358
0.000469914
0.000276884
0.000141934
5.88639e-05
1.71214e-05
2.50953e-06
8.46047e-08
0.000485047
0.00138186
0.00215987
0.0028338
0.00342761
0.00395882
0.00443795
0.0048708
0.00526053
0.00560884
0.00591664
0.00618449
0.00641271
0.00660152
0.00675112
0.00686169
0.00693347
0.00696672
0.00696179
0.00691921
0.0068396
0.00672381
0.0065729
0.00638817
0.00617125
0.00592406
0.00564887
0.00534834
0.00502548
0.00468368
0.00432666
0.00395849
0.0035835
0.00320626
0.00283149
0.00246399
0.00210851
0.00176972
0.00145204
0.00115954
0.000895903
0.000664274
0.000467196
0.000306403
0.000182534
9.46711e-05
3.96964e-05
1.16421e-05
1.71328e-06
5.77978e-08
0.000285256
0.000798875
0.0012335
0.00160707
0.00193705
0.00223375
0.00250256
0.00274616
0.00296593
0.0031626
0.00333655
0.00348801
0.00361715
0.00372405
0.00380882
0.00387157
0.00391243
0.00393154
0.00392911
0.00390544
0.00386088
0.00379593
0.00371118
0.00360738
0.00348545
0.00334647
0.00319174
0.00302276
0.00284121
0.00264901
0.00244826
0.00224125
0.00203041
0.00181829
0.00160754
0.00140084
0.00120085
0.00101015
0.000831184
0.000666214
0.000517238
0.00038596
0.000273731
0.000181471
0.000109576
5.77345e-05
2.4607e-05
7.3146e-06
1.08394e-06
3.66104e-08
0.0001478
0.000403342
0.00061399
0.000794785
0.000955543
0.00110098
0.00123324
0.00135335
0.00146184
0.00155898
0.00164493
0.0017198
0.00178364
0.00183652
0.00187847
0.00190956
0.00192984
0.00193939
0.00193832
0.00192678
0.00190494
0.00187304
0.00183139
0.00178035
0.00172038
0.00165203
0.00157592
0.00149279
0.00140349
0.00130895
0.00121021
0.0011084
0.0010047
0.000900387
0.000796741
0.000695082
0.000596708
0.000502881
0.000414793
0.000333537
0.000260076
0.000195219
0.000139588
9.3592e-05
5.73907e-05
3.08546e-05
1.34683e-05
4.09568e-06
6.15008e-07
2.08232e-08
6.29941e-05
0.000165401
0.000248142
0.00031971
0.000383918
0.00044229
0.000495489
0.000543843
0.000587528
0.000626648
0.000661265
0.000691418
0.000717134
0.000738436
0.000755343
0.000767877
0.000776066
0.00077994
0.000779542
0.000774931
0.000766182
0.000753392
0.000736681
0.000716201
0.000692134
0.000664697
0.000634149
0.000600786
0.000564946
0.000527007
0.000487384
0.000446529
0.000404923
0.00036307
0.000321488
0.000280703
0.000241235
0.000203589
0.000168239
0.000135621
0.000106117
8.00421e-05
5.76365e-05
3.90478e-05
2.43199e-05
1.33819e-05
6.03505e-06
1.90731e-06
2.94536e-07
1.00367e-08
1.91199e-05
4.76874e-05
7.07642e-05
9.10117e-05
0.000109294
0.000125944
0.000141123
0.000154917
0.000167378
0.000178534
0.000188406
0.000197004
0.000204337
0.000210411
0.000215232
0.000218807
0.000221143
0.00022225
0.000222139
0.000220828
0.000218339
0.000214698
0.000209941
0.000204111
0.000197259
0.000189449
0.000180753
0.000171257
0.000161056
0.000150258
0.000138982
0.000127357
0.000115519
0.000103611
9.17813e-05
8.01791e-05
6.89522e-05
5.82436e-05
4.81882e-05
3.89091e-05
3.05143e-05
2.30927e-05
1.67109e-05
1.14087e-05
7.19531e-06
4.04496e-06
1.8932e-06
6.34611e-07
1.04355e-07
3.62655e-09
2.92078e-06
6.94597e-06
1.02754e-05
1.32199e-05
1.588e-05
1.83015e-05
2.0508e-05
2.25128e-05
2.43233e-05
2.59442e-05
2.73781e-05
2.86269e-05
2.96919e-05
3.05739e-05
3.12739e-05
3.17928e-05
3.21318e-05
3.22921e-05
3.22755e-05
3.20846e-05
3.17225e-05
3.11932e-05
3.05018e-05
2.96544e-05
2.86588e-05
2.7524e-05
2.62607e-05
2.48811e-05
2.33994e-05
2.18311e-05
2.01936e-05
1.85054e-05
1.67865e-05
1.50577e-05
1.33403e-05
1.16562e-05
1.00266e-05
8.47245e-06
7.0132e-06
5.6667e-06
4.44858e-06
3.37167e-06
2.44553e-06
1.6758e-06
1.06367e-06
6.05262e-07
2.90735e-07
1.0344e-07
1.91906e-08
7.22878e-10
1.00314e-07
2.34276e-07
3.46654e-07
4.45921e-07
5.35557e-07
6.17134e-07
6.9146e-07
7.58984e-07
8.19961e-07
8.74546e-07
9.22833e-07
9.64882e-07
1.00073e-06
1.03042e-06
1.05398e-06
1.07144e-06
1.08283e-06
1.08821e-06
1.08762e-06
1.08116e-06
1.06893e-06
1.05107e-06
1.02775e-06
9.99171e-07
9.656e-07
9.27339e-07
8.84749e-07
8.38246e-07
7.88301e-07
7.35443e-07
6.80255e-07
6.23363e-07
5.6544e-07
5.07187e-07
4.49326e-07
3.92588e-07
3.37695e-07
2.85346e-07
2.36199e-07
1.90856e-07
1.49841e-07
1.13586e-07
8.24125e-08
5.65066e-08
3.59053e-08
2.04774e-08
9.89413e-09
3.58397e-09
7.15659e-10
4.5874e-11
6.03341e-08
1.44657e-09
8.08366e-11
5.61445e-12
3.179e-13
1.89149e-14
1.31405e-15
1e-15
1e-15
1e-15
1e-15
1e-15
1e-15
1e-15
2.53012e-15
5.34424e-14
1.09463e-12
2.23796e-11
4.59329e-10
1.05358e-08
1.24778e-06
6.83484e-08
3.72548e-09
2.24785e-10
1.63943e-11
1.20875e-12
7.14026e-14
4.1037e-15
1e-15
1e-15
1e-15
1e-15
1.00002e-15
1.44106e-14
2.76956e-13
5.57067e-12
1.12955e-10
2.29103e-09
4.63734e-08
9.19241e-07
3.71883e-07
1.46993e-08
7.64141e-10
5.01035e-11
3.45375e-12
2.41778e-13
1.53255e-14
1.09456e-15
1e-15
1e-15
1e-15
1e-15
1e-15
3.27001e-15
6.07377e-14
1.21362e-12
2.44664e-11
4.96677e-10
1.01757e-08
2.26403e-07
3.18056e-11
4.95814e-10
2.47645e-09
6.79747e-09
1.39371e-08
2.41313e-08
3.73874e-08
5.35124e-08
7.21467e-08
9.27976e-08
1.14877e-07
1.37743e-07
1.60739e-07
1.83233e-07
2.04651e-07
2.24503e-07
2.42399e-07
2.58067e-07
2.71351e-07
2.8221e-07
2.90709e-07
2.97005e-07
3.01332e-07
3.03983e-07
3.05293e-07
3.0562e-07
3.05334e-07
3.04802e-07
3.04378e-07
3.04401e-07
3.05186e-07
3.07029e-07
3.10201e-07
3.14961e-07
3.21547e-07
3.30182e-07
3.41073e-07
3.54409e-07
3.7036e-07
3.89069e-07
4.10655e-07
4.35193e-07
4.62717e-07
4.93203e-07
5.26557e-07
5.62615e-07
6.01129e-07
6.41775e-07
6.8416e-07
7.27847e-07
7.72372e-07
8.17273e-07
8.62108e-07
9.06465e-07
9.49969e-07
9.92289e-07
1.03313e-06
1.07224e-06
1.10942e-06
1.14449e-06
1.17732e-06
1.20784e-06
1.23598e-06
1.26173e-06
1.28511e-06
1.30617e-06
1.32497e-06
1.34162e-06
1.35621e-06
1.36887e-06
1.37972e-06
1.38889e-06
1.39651e-06
1.40269e-06
1.40754e-06
1.41117e-06
1.41368e-06
1.41516e-06
1.41566e-06
1.41527e-06
1.41404e-06
1.41201e-06
1.40925e-06
1.4058e-06
1.40171e-06
1.39703e-06
1.39182e-06
1.38613e-06
1.38003e-06
1.37359e-06
1.36688e-06
1.35998e-06
1.35298e-06
1.34597e-06
1.33905e-06
1.33235e-06
1.32605e-06
1.32043e-06
1.31587e-06
1.31299e-06
5.01152e-10
1.32948e-08
7.14492e-08
1.99634e-07
4.119e-07
7.15176e-07
1.10968e-06
1.58963e-06
2.14429e-06
2.75897e-06
3.41614e-06
4.09666e-06
4.78101e-06
5.45036e-06
6.08761e-06
6.67817e-06
7.21049e-06
7.67646e-06
8.07145e-06
8.39426e-06
8.64684e-06
8.83388e-06
8.96235e-06
9.04098e-06
9.07973e-06
9.08929e-06
9.08068e-06
9.06477e-06
9.05214e-06
9.05283e-06
9.07626e-06
9.13118e-06
9.22568e-06
9.36744e-06
9.56356e-06
9.82064e-06
1.01449e-05
1.05418e-05
1.10166e-05
1.15734e-05
1.22159e-05
1.29462e-05
1.37654e-05
1.46727e-05
1.56655e-05
1.67387e-05
1.7885e-05
1.90948e-05
2.03564e-05
2.16566e-05
2.29818e-05
2.43181e-05
2.56524e-05
2.69724e-05