/*--------------------------------*- C++ -*----------------------------------*\
| =========                 |                                                 |
| \\      /  F ield         | foam-extend: Open Source CFD                    |
|  \\    /   O peration     | Version:     4.0                                |
|   \\  /    A nd           | Web:         http://www.foam-extend.org         |
|    \\/     M anipulation  |                                                 |
\*---------------------------------------------------------------------------*/
FoamFile
{
    version     2.0;
    format      ascii;
    class       volScalarField;
    location    "0.0017";
    object      nut;
}
// * * * * * * * * * * * * * * * * * * * * * * * * * * * * * * * * * * * * * //

dimensions      [0 2 -1 0 0 0 0];

internalField   nonuniform List<scalar> 
28770
(
4.80927e-15
1.13483e-14
1.6966e-14
2.20749e-14
2.67195e-14
3.10018e-14
3.49372e-14
3.85409e-14
4.18198e-14
4.47773e-14
4.74151e-14
4.97339e-14
5.1734e-14
5.34157e-14
5.47793e-14
5.58254e-14
5.65552e-14
5.69702e-14
5.70729e-14
5.68669e-14
5.63565e-14
5.55474e-14
5.44478e-14
5.30675e-14
5.14184e-14
4.95153e-14
4.73754e-14
4.50189e-14
4.24692e-14
3.97524e-14
3.68977e-14
3.39368e-14
3.09041e-14
2.78358e-14
2.47696e-14
2.1744e-14
1.87977e-14
1.59687e-14
1.32938e-14
1.08074e-14
8.5405e-15
6.52008e-15
4.76745e-15
3.29715e-15
2.11566e-15
1.22006e-15
5.96756e-16
2.19414e-16
4.49343e-17
3.02264e-18
9.81014e-13
1.99532e-12
2.93643e-12
3.81234e-12
4.61268e-12
5.35076e-12
6.02932e-12
6.65073e-12
7.21615e-12
7.72615e-12
8.18101e-12
8.58085e-12
8.92572e-12
9.21565e-12
9.45071e-12
9.63101e-12
9.75673e-12
9.82815e-12
9.8457e-12
9.80998e-12
9.72175e-12
9.58199e-12
9.39212e-12
9.15381e-12
8.86915e-12
8.54066e-12
8.17132e-12
7.76463e-12
7.3246e-12
6.85576e-12
6.36313e-12
5.85221e-12
5.3289e-12
4.79947e-12
4.27041e-12
3.74838e-12
3.24005e-12
2.75199e-12
2.29054e-12
1.86161e-12
1.4706e-12
1.12213e-12
8.19887e-13
5.66376e-13
3.62701e-13
2.0832e-13
1.00752e-13
3.51827e-14
5.06767e-15
4.85657e-17
2.5796e-11
4.32532e-11
6.05768e-11
7.76401e-11
9.36213e-11
1.08464e-10
1.22148e-10
1.34693e-10
1.46111e-10
1.56413e-10
1.656e-10
1.73676e-10
1.8064e-10
1.86493e-10
1.91236e-10
1.94872e-10
1.97404e-10
1.98837e-10
1.9918e-10
1.98445e-10
1.96648e-10
1.93809e-10
1.89956e-10
1.85122e-10
1.79351e-10
1.72693e-10
1.65208e-10
1.56968e-10
1.48054e-10
1.38557e-10
1.28579e-10
1.18231e-10
1.07634e-10
9.69136e-11
8.62018e-11
7.56332e-11
6.53431e-11
5.54645e-11
4.61255e-11
3.74462e-11
2.95353e-11
2.24863e-11
1.6373e-11
1.12443e-11
7.11876e-12
3.97913e-12
1.77674e-12
4.78198e-13
3.70479e-14
2.3732e-16
2.54652e-10
3.56476e-10
4.66807e-10
5.82891e-10
6.96126e-10
8.03363e-10
9.0316e-10
9.95039e-10
1.07884e-09
1.15451e-09
1.22203e-09
1.28138e-09
1.33255e-09
1.37554e-09
1.41036e-09
1.43701e-09
1.45553e-09
1.46596e-09
1.46834e-09
1.46278e-09
1.44939e-09
1.42831e-09
1.39976e-09
1.36397e-09
1.32127e-09
1.27203e-09
1.21669e-09
1.15579e-09
1.08991e-09
1.01973e-09
9.46009e-10
8.69568e-10
7.9129e-10
7.1211e-10
6.33002e-10
5.54958e-10
4.78977e-10
4.06039e-10
3.37086e-10
2.72999e-10
2.14571e-10
1.62478e-10
1.17237e-10
7.91789e-11
4.84352e-11
2.50599e-11
9.39577e-12
1.84485e-12
1.07407e-13
6.45e-16
1.43031e-09
1.76028e-09
2.16128e-09
2.61072e-09
3.06901e-09
3.51526e-09
3.93747e-09
4.32979e-09
4.68943e-09
5.01506e-09
5.30601e-09
5.56193e-09
5.78262e-09
5.96799e-09
6.118e-09
6.23267e-09
6.3121e-09
6.35645e-09
6.36597e-09
6.34102e-09
6.28211e-09
6.18987e-09
6.06519e-09
5.90915e-09
5.7231e-09
5.50866e-09
5.26778e-09
5.00272e-09
4.71608e-09
4.41079e-09
4.09013e-09
3.75767e-09
3.41723e-09
3.07289e-09
2.72885e-09
2.38943e-09
2.05894e-09
1.74159e-09
1.44142e-09
1.16221e-09
9.07285e-10
6.79498e-10
4.811e-10
3.13902e-10
1.79938e-10
8.26759e-11
2.58039e-11
4.19755e-12
2.2283e-13
1.31787e-15
5.56823e-09
6.32465e-09
7.36824e-09
8.60796e-09
9.92519e-09
1.12467e-08
1.25233e-08
1.37256e-08
1.48372e-08
1.58489e-08
1.67556e-08
1.75546e-08
1.82441e-08
1.88233e-08
1.92917e-08
1.96492e-08
1.98958e-08
2.0032e-08
2.00586e-08
1.99766e-08
1.97876e-08
1.94935e-08
1.90972e-08
1.86019e-08
1.80119e-08
1.73324e-08
1.65693e-08
1.573e-08
1.48224e-08
1.3856e-08
1.28409e-08
1.17885e-08
1.07108e-08
9.62055e-09
8.531e-09
7.45564e-09
6.4079e-09
5.40091e-09
4.44718e-09
3.55834e-09
2.74499e-09
2.01682e-09
1.38341e-09
8.56293e-10
4.51287e-10
1.84314e-10
5.06971e-11
7.55876e-12
3.88566e-13
2.28463e-15
1.6835e-08
1.82603e-08
2.04459e-08
2.31846e-08
2.62022e-08
2.93163e-08
3.23902e-08
3.53316e-08
3.80813e-08
4.06028e-08
4.28738e-08
4.48811e-08
4.66163e-08
4.80748e-08
4.92537e-08
5.01516e-08
5.07682e-08
5.11041e-08
5.11607e-08
5.09407e-08
5.04478e-08
4.96867e-08
4.86645e-08
4.73897e-08
4.58729e-08
4.41271e-08
4.21677e-08
4.00129e-08
3.76834e-08
3.52027e-08
3.25971e-08
2.9895e-08
2.71271e-08
2.43258e-08
2.15244e-08
1.8757e-08
1.60574e-08
1.34587e-08
1.09929e-08
8.69081e-09
6.5832e-09
4.70344e-09
3.09192e-09
1.79895e-09
8.74e-10
3.26676e-10
8.35991e-11
1.19795e-11
6.07425e-13
3.56047e-15
4.25054e-08
4.49345e-08
4.88416e-08
5.40203e-08
5.99129e-08
6.61486e-08
7.24312e-08
7.85413e-08
8.43243e-08
8.96757e-08
9.45267e-08
9.88327e-08
1.02565e-07
1.05706e-07
1.08244e-07
1.10173e-07
1.1149e-07
1.12193e-07
1.12286e-07
1.11773e-07
1.10661e-07
1.08961e-07
1.06687e-07
1.03858e-07
1.00495e-07
9.66285e-08
9.22906e-08
8.75211e-08
8.23651e-08
7.68738e-08
7.11042e-08
6.51182e-08
5.89826e-08
5.27676e-08
4.65458e-08
4.03912e-08
3.43783e-08
2.85815e-08
2.30758e-08
1.79404e-08
1.32645e-08
9.15553e-09
5.74157e-09
3.14831e-09
1.43335e-09
5.05619e-10
1.24403e-10
1.74819e-11
8.80083e-13
5.1484e-15
9.37998e-08
9.76108e-08
1.03978e-07
1.12739e-07
1.22972e-07
1.34036e-07
1.45388e-07
1.566e-07
1.67344e-07
1.77384e-07
1.86552e-07
1.94733e-07
2.01848e-07
2.07845e-07
2.12691e-07
2.16363e-07
2.18849e-07
2.20143e-07
2.20246e-07
2.19165e-07
2.16911e-07
2.13502e-07
2.08967e-07
2.03339e-07
1.96662e-07
1.8899e-07
1.80386e-07
1.70928e-07
1.60702e-07
1.49808e-07
1.38355e-07
1.26464e-07
1.14265e-07
1.01893e-07
8.94919e-08
7.72093e-08
6.51977e-08
5.3617e-08
4.26413e-08
3.24698e-08
2.33398e-08
1.55275e-08
9.30971e-09
4.85943e-09
2.11181e-09
7.18665e-10
1.72983e-10
2.40517e-11
1.20559e-12
7.04209e-15
1.86617e-07
1.92314e-07
2.01996e-07
2.15605e-07
2.31841e-07
2.49717e-07
2.68354e-07
2.87017e-07
3.05113e-07
3.22186e-07
3.37895e-07
3.51991e-07
3.64297e-07
3.74689e-07
3.83081e-07
3.89416e-07
3.93657e-07
3.95783e-07
3.95786e-07
3.93672e-07
3.89456e-07
3.83166e-07
3.74848e-07
3.64559e-07
3.52375e-07
3.38387e-07
3.22709e-07
3.05473e-07
2.86833e-07
2.66965e-07
2.46063e-07
2.24341e-07
2.02032e-07
1.79383e-07
1.5666e-07
1.34145e-07
1.12144e-07
9.09969e-08
7.10948e-08
5.28965e-08
3.69271e-08
2.37225e-08
1.36864e-08
6.88084e-09
2.89683e-09
9.63994e-10
2.29041e-10
3.16437e-11
1.5817e-12
9.22977e-15
3.41861e-07
3.50182e-07
3.64291e-07
3.83844e-07
4.07781e-07
4.34573e-07
4.62894e-07
4.91601e-07
5.19732e-07
5.46513e-07
5.71332e-07
5.93726e-07
6.13347e-07
6.29942e-07
6.43328e-07
6.53375e-07
6.59994e-07
6.63129e-07
6.6275e-07
6.5885e-07
6.51444e-07
6.4057e-07
6.26291e-07
6.08695e-07
5.87902e-07
5.64057e-07
5.37342e-07
5.07973e-07
4.762e-07
4.42313e-07
4.06634e-07
3.69524e-07
3.3138e-07
2.92637e-07
2.53774e-07
2.15323e-07
1.77889e-07
1.42167e-07
1.08965e-07
7.91916e-08
5.3781e-08
3.35146e-08
1.87501e-08
9.17293e-09
3.78021e-09
1.24007e-09
2.92211e-10
4.0199e-11
2.00498e-12
1.16886e-14
5.84991e-07
5.96962e-07
6.16439e-07
6.43285e-07
6.76587e-07
7.1434e-07
7.54707e-07
7.96049e-07
8.36939e-07
8.76175e-07
9.12777e-07
9.45965e-07
9.75134e-07
9.99822e-07
1.01968e-06
1.03446e-06
1.04398e-06
1.0481e-06
1.04675e-06
1.03989e-06
1.02752e-06
1.00967e-06
9.86439e-07
9.57936e-07
9.24333e-07
8.85848e-07
8.42754e-07
7.95378e-07
7.44111e-07
6.89403e-07
6.31771e-07
5.71801e-07
5.10156e-07
4.47587e-07
3.8495e-07
3.23232e-07
2.63578e-07
2.07306e-07
1.55888e-07
1.10839e-07
7.3493e-08
4.468e-08
2.4409e-08
1.17102e-08
4.75782e-09
1.54673e-09
3.62588e-10
4.97382e-11
2.47602e-12
1.44048e-14
9.44775e-07
9.62058e-07
9.87992e-07
1.02351e-06
1.06759e-06
1.11806e-06
1.17252e-06
1.22879e-06
1.28488e-06
1.33906e-06
1.38989e-06
1.43616e-06
1.47691e-06
1.51138e-06
1.53897e-06
1.55924e-06
1.57185e-06
1.57654e-06
1.57314e-06
1.56156e-06
1.54173e-06
1.5137e-06
1.47753e-06
1.4334e-06
1.38151e-06
1.32218e-06
1.25578e-06
1.18281e-06
1.10383e-06
1.01954e-06
9.30748e-07
8.38386e-07
7.43555e-07
6.47534e-07
5.51822e-07
4.58173e-07
3.6861e-07
2.85385e-07
2.10836e-07
1.47095e-07
9.56779e-08
5.70827e-08
3.06202e-08
1.44825e-08
5.83108e-09
1.88685e-09
4.41379e-10
6.04871e-11
3.0105e-12
1.75321e-14
1.45088e-06
1.47638e-06
1.51025e-06
1.55611e-06
1.61168e-06
1.67601e-06
1.74603e-06
1.81888e-06
1.89195e-06
1.96293e-06
2.0298e-06
2.09084e-06
2.14463e-06
2.19e-06
2.22604e-06
2.252e-06
2.26731e-06
2.27152e-06
2.2643e-06
2.24544e-06
2.21481e-06
2.17237e-06
2.1182e-06
2.05246e-06
1.97542e-06
1.88749e-06
1.7892e-06
1.68122e-06
1.56441e-06
1.43979e-06
1.30862e-06
1.1724e-06
1.03291e-06
8.92283e-07
7.53047e-07
6.18118e-07
4.9077e-07
3.74447e-07
2.7241e-07
1.87204e-07
1.20084e-07
7.07144e-08
3.74144e-08
1.75193e-08
7.02416e-09
2.27401e-09
5.32806e-10
7.29925e-11
3.6171e-12
2.09129e-14
2.1303e-06
2.16892e-06
2.21268e-06
2.2702e-06
2.33805e-06
2.41679e-06
2.50295e-06
2.59307e-06
2.68392e-06
2.77251e-06
2.85621e-06
2.9327e-06
3.00001e-06
3.05649e-06
3.10078e-06
3.13175e-06
3.14849e-06
3.15029e-06
3.13659e-06
3.10698e-06
3.06117e-06
2.99903e-06
2.92058e-06
2.82597e-06
2.71551e-06
2.58972e-06
2.44931e-06
2.29522e-06
2.12869e-06
1.95127e-06
1.76487e-06
1.57185e-06
1.37506e-06
1.17791e-06
9.844e-07
7.9903e-07
6.26634e-07
4.71963e-07
3.39069e-07
2.30528e-07
1.46643e-07
8.55597e-08
4.47973e-08
2.08925e-08
8.42241e-09
2.76162e-09
6.56779e-10
9.10482e-11
4.49561e-12
2.43595e-14
3.00246e-06
3.06211e-06
3.11851e-06
3.18899e-06
3.27025e-06
3.36305e-06
3.46486e-06
3.57173e-06
3.6798e-06
3.78546e-06
3.88539e-06
3.97665e-06
4.05664e-06
4.12315e-06
4.17428e-06
4.20842e-06
4.22424e-06
4.22065e-06
4.19675e-06
4.15186e-06
4.08548e-06
3.99728e-06
3.88717e-06
3.75526e-06
3.60189e-06
3.42771e-06
3.23365e-06
3.02105e-06
2.79169e-06
2.54788e-06
2.29251e-06
2.02918e-06
1.76228e-06
1.49698e-06
1.23919e-06
9.95329e-07
7.71933e-07
5.74974e-07
4.09061e-07
2.76683e-07
2.06041e-07
1.12481e-07
5.97578e-08
2.86426e-08
1.21689e-08
4.32504e-09
1.16611e-09
2.00371e-10
1.47285e-11
1.0653e-13
4.07364e-06
4.16618e-06
4.23928e-06
4.32466e-06
4.42096e-06
4.52635e-06
4.64204e-06
4.76372e-06
4.88697e-06
5.00755e-06
5.12152e-06
5.22525e-06
5.31554e-06
5.38951e-06
5.44466e-06
5.47883e-06
5.49016e-06
5.47707e-06
5.43824e-06
5.3726e-06
5.27932e-06
5.15784e-06
5.00787e-06
4.82944e-06
4.62291e-06
4.38908e-06
4.12923e-06
3.84522e-06
3.5396e-06
3.21575e-06
2.87793e-06
2.53148e-06
2.18276e-06
1.83919e-06
1.50892e-06
1.20045e-06
9.2187e-07
6.80013e-07
4.79461e-07
3.21512e-07
2.35584e-07
1.28861e-07
6.73993e-08
3.22714e-08
1.38897e-08
5.02507e-09
1.37247e-09
2.36338e-10
1.67196e-11
1.08281e-13
5.33177e-06
5.47329e-06
5.56862e-06
5.67119e-06
5.78267e-06
5.90088e-06
6.02783e-06
6.16111e-06
6.29598e-06
6.42775e-06
6.55192e-06
6.66424e-06
6.76085e-06
6.83824e-06
6.89324e-06
6.92307e-06
6.92524e-06
6.89759e-06
6.83827e-06
6.74572e-06
6.61871e-06
6.45632e-06
6.25803e-06
6.02374e-06
5.75384e-06
5.44934e-06
5.11196e-06
4.7443e-06
4.34997e-06
3.93374e-06
3.50173e-06
3.06142e-06
2.62164e-06
2.19235e-06
1.78414e-06
1.40747e-06
1.07168e-06
7.83929e-07
5.48268e-07
3.64552e-07
2.63723e-07
1.43776e-07
7.46857e-08
3.589e-08
1.56118e-08
5.68337e-09
1.55307e-09
2.6901e-10
1.91426e-11
1.2451e-13
6.74234e-06
6.95246e-06
7.07686e-06
7.1995e-06
7.32671e-06
7.45851e-06
7.5934e-06
7.73393e-06
7.87564e-06
8.01354e-06
8.14271e-06
8.25838e-06
8.35609e-06
8.43167e-06
8.48131e-06
8.50151e-06
8.48914e-06
8.44136e-06
8.3557e-06
8.23002e-06
8.06258e-06
7.85204e-06
7.5976e-06
7.29899e-06
6.95667e-06
6.57192e-06
6.14708e-06
5.68568e-06
5.19269e-06
4.67468e-06
4.13997e-06
3.5986e-06
3.06216e-06
2.54333e-06
2.05506e-06
1.60953e-06
1.21693e-06
8.84249e-07
6.14591e-07
4.06361e-07
2.92095e-07
1.59301e-07
8.27943e-08
4.00169e-08
1.75369e-08
5.56537e-09
1.45673e-09
2.47908e-10
1.63357e-11
6.30427e-14
8.24716e-06
8.5466e-06
8.70754e-06
8.85336e-06
8.99684e-06
9.14125e-06
9.28342e-06
9.42647e-06
9.56958e-06
9.70779e-06
9.836e-06
9.94905e-06
1.0042e-05
1.011e-05
1.01486e-05
1.01537e-05
1.01214e-05
1.00482e-05
9.93083e-06
9.76658e-06
9.55309e-06
9.2886e-06
8.97194e-06
8.60271e-06
8.18145e-06
7.70984e-06
7.19095e-06
6.62949e-06
6.03204e-06
5.40727e-06
4.76599e-06
4.12105e-06
3.4869e-06
2.87887e-06
2.31206e-06
1.8e-06
1.35327e-06
9.78338e-07
6.77071e-07
4.46368e-07
3.19648e-07
1.7548e-07
9.15049e-08
4.44521e-08
1.9533e-08
6.1895e-09
1.66189e-09
2.86953e-10
1.92451e-11
7.84068e-14
9.76681e-06
1.01735e-05
1.03776e-05
1.05493e-05
1.07094e-05
1.08646e-05
1.10147e-05
1.11568e-05
1.12958e-05
1.14286e-05
1.155e-05
1.16546e-05
1.17371e-05
1.17922e-05
1.18148e-05
1.18e-05
1.17434e-05
1.16405e-05
1.14876e-05
1.12812e-05
1.10183e-05
1.06966e-05
1.03147e-05
9.87208e-06
9.36935e-06
8.80868e-06
8.19402e-06
7.5314e-06
6.8292e-06
6.09837e-06
5.35233e-06
4.60675e-06
3.87884e-06
3.18635e-06
2.54616e-06
1.97272e-06
1.47663e-06
1.06353e-06
7.3393e-07
4.83113e-07
3.44747e-07
1.9094e-07
9.98476e-08
4.86482e-08
2.1422e-08
6.79163e-09
1.83243e-09
3.14464e-10
2.14755e-11
8.87964e-14
1.12069e-05
1.1731e-05
1.1982e-05
1.21809e-05
1.23573e-05
1.25219e-05
1.26769e-05
1.28191e-05
1.29505e-05
1.30732e-05
1.31831e-05
1.32746e-05
1.33424e-05
1.33806e-05
1.33837e-05
1.33461e-05
1.32626e-05
1.31283e-05
1.29385e-05
1.26892e-05
1.23768e-05
1.19986e-05
1.15527e-05
1.10385e-05
1.0457e-05
9.81071e-06
9.10458e-06
8.34602e-06
7.54525e-06
6.71546e-06
5.8726e-06
5.03498e-06
4.22228e-06
3.45428e-06
2.74922e-06
2.12209e-06
1.58319e-06
1.13725e-06
7.83358e-07
5.15224e-07
3.66386e-07
2.04614e-07
1.07197e-07
5.23607e-08
2.31363e-08
7.37245e-09
2.00933e-09
3.51281e-10
2.45544e-11
9.64705e-14
1.24677e-05
1.3107e-05
1.34041e-05
1.3629e-05
1.38203e-05
1.39925e-05
1.415e-05
1.42925e-05
1.44164e-05
1.45264e-05
1.4622e-05
1.46982e-05
1.47492e-05
1.47691e-05
1.47516e-05
1.46909e-05
1.45811e-05
1.44165e-05
1.4192e-05
1.39029e-05
1.35451e-05
1.31154e-05
1.26118e-05
1.20336e-05
1.13818e-05
1.06596e-05
9.87294e-06
9.0304e-06
8.14395e-06
7.22879e-06
6.3031e-06
5.38745e-06
4.50353e-06
3.67272e-06
2.9142e-06
2.24319e-06
1.66959e-06
1.19715e-06
8.23715e-07
5.41657e-07
3.84073e-07
2.16223e-07
1.13528e-07
5.56478e-08
2.47372e-08
7.98852e-09
2.20598e-09
3.96842e-10
2.37993e-11
2.50168e-13
1.34555e-05
1.4193e-05
1.45293e-05
1.47758e-05
1.49791e-05
1.51568e-05
1.53152e-05
1.54555e-05
1.55755e-05
1.56738e-05
1.57552e-05
1.58164e-05
1.58517e-05
1.58548e-05
1.58191e-05
1.57382e-05
1.56058e-05
1.54158e-05
1.51624e-05
1.48406e-05
1.44458e-05
1.39746e-05
1.34247e-05
1.27953e-05
1.20878e-05
1.13057e-05
1.04558e-05
9.54759e-06
8.59457e-06
7.6135e-06
6.62432e-06
5.64928e-06
4.71159e-06
3.83372e-06
3.03544e-06
2.33205e-06
1.73297e-06
1.24119e-06
8.53562e-07
5.61444e-07
3.97166e-07
2.25604e-07
1.1884e-07
5.85184e-08
2.62301e-08
8.6189e-09
2.44672e-09
4.57224e-10
2.86957e-11
3.12355e-13
1.41005e-05
1.49063e-05
1.52701e-05
1.55314e-05
1.57426e-05
1.59237e-05
1.6082e-05
1.62198e-05
1.6336e-05
1.64279e-05
1.64983e-05
1.65481e-05
1.65717e-05
1.65625e-05
1.65137e-05
1.64185e-05
1.62703e-05
1.60627e-05
1.57896e-05
1.54456e-05
1.5026e-05
1.4527e-05
1.39463e-05
1.32831e-05
1.25388e-05
1.17175e-05
1.08261e-05
9.87527e-06
8.87915e-06
7.85562e-06
6.82576e-06
5.81289e-06
4.84115e-06
3.93366e-06
3.11051e-06
2.38696e-06
1.77213e-06
1.26846e-06
8.72155e-07
5.73942e-07
4.04916e-07
2.32258e-07
1.22793e-07
6.07413e-08
2.74523e-08
9.18714e-09
2.72696e-09
5.62859e-10
7.11679e-11
1.61305e-12
1.43337e-05
1.51652e-05
1.55393e-05
1.58057e-05
1.60193e-05
1.62009e-05
1.63587e-05
1.64949e-05
1.66088e-05
1.66983e-05
1.67639e-05
1.68087e-05
1.68274e-05
1.68132e-05
1.6759e-05
1.66581e-05
1.65037e-05
1.62893e-05
1.60087e-05
1.56564e-05
1.52275e-05
1.47182e-05
1.41262e-05
1.34507e-05
1.26932e-05
1.18578e-05
1.09518e-05
9.98585e-06
8.97464e-06
7.93636e-06
6.89248e-06
5.86667e-06
4.88338e-06
3.96593e-06
3.13452e-06
2.40436e-06
1.78444e-06
1.27698e-06
8.77963e-07
5.77884e-07
4.06228e-07
2.35287e-07
1.24666e-07
6.18222e-08
2.80826e-08
9.49933e-09
2.90297e-09
6.57605e-10
1.08249e-10
8.35137e-12
1.41349e-05
1.49438e-05
1.53084e-05
1.55688e-05
1.57786e-05
1.59579e-05
1.61144e-05
1.62502e-05
1.63643e-05
1.64542e-05
1.65225e-05
1.65704e-05
1.65922e-05
1.65812e-05
1.65306e-05
1.64336e-05
1.62836e-05
1.60742e-05
1.57993e-05
1.54536e-05
1.50323e-05
1.45316e-05
1.39492e-05
1.32845e-05
1.25388e-05
1.17161e-05
1.08236e-05
9.87182e-06
8.87497e-06
7.85094e-06
6.82081e-06
5.8079e-06
4.83633e-06
3.92918e-06
3.10652e-06
2.38355e-06
1.76935e-06
1.26631e-06
8.70614e-07
5.72936e-07
4.00891e-07
2.34009e-07
1.23905e-07
6.13746e-08
2.78135e-08
9.28898e-09
2.78172e-09
5.92783e-10
7.64233e-11
2.20986e-12
1.35239e-05
1.42664e-05
1.46032e-05
1.48474e-05
1.50476e-05
1.52217e-05
1.53764e-05
1.55128e-05
1.56288e-05
1.57231e-05
1.58006e-05
1.58582e-05
1.58901e-05
1.58896e-05
1.58505e-05
1.57661e-05
1.56303e-05
1.54368e-05
1.51801e-05
1.48549e-05
1.44568e-05
1.39824e-05
1.34294e-05
1.2797e-05
1.20868e-05
1.13022e-05
1.04501e-05
9.54015e-06
8.58575e-06
7.60375e-06
6.6141e-06
5.63903e-06
4.70173e-06
3.82459e-06
3.02731e-06
2.3251e-06
1.7273e-06
1.23679e-06
8.50376e-07
5.59358e-07
3.89602e-07
2.28639e-07
1.20701e-07
5.95334e-08
2.67597e-08
8.71726e-09
2.4974e-09
4.76525e-10
4.65563e-11
3.31703e-13
1.25673e-05
1.32118e-05
1.35082e-05
1.37289e-05
1.39153e-05
1.40822e-05
1.42343e-05
1.43712e-05
1.44894e-05
1.45939e-05
1.46842e-05
1.47554e-05
1.48015e-05
1.48165e-05
1.47942e-05
1.47287e-05
1.4614e-05
1.44447e-05
1.42154e-05
1.39216e-05
1.35592e-05
1.3125e-05
1.2617e-05
1.20347e-05
1.1379e-05
1.06535e-05
9.86376e-06
9.01874e-06
8.13039e-06
7.21396e-06
6.28766e-06
5.37201e-06
4.4887e-06
3.659e-06
2.90198e-06
2.23275e-06
1.66104e-06
1.1905e-06
8.18866e-07
5.38489e-07
3.73438e-07
2.20166e-07
1.15835e-07
5.68391e-08
2.53086e-08
8.06571e-09
2.24328e-09
4.06975e-10
3.76269e-11
2.54941e-13
1.13272e-05
1.18564e-05
1.2106e-05
1.22995e-05
1.24698e-05
1.26279e-05
1.27762e-05
1.29118e-05
1.30364e-05
1.31527e-05
1.32564e-05
1.3342e-05
1.34038e-05
1.34362e-05
1.34334e-05
1.339e-05
1.33008e-05
1.31607e-05
1.29652e-05
1.27102e-05
1.23922e-05
1.20086e-05
1.15575e-05
1.10384e-05
1.04522e-05
9.80175e-06
9.092e-06
8.33045e-06
7.5274e-06
6.69609e-06
5.85252e-06
5.01496e-06
4.20306e-06
3.43649e-06
2.73336e-06
2.1085e-06
1.57206e-06
1.12858e-06
7.77019e-07
5.11086e-07
3.531e-07
2.09296e-07
1.09848e-07
5.36678e-08
2.37123e-08
7.43783e-09
2.03474e-09
3.58847e-10
2.5486e-11
1.04551e-13
9.89935e-06
1.03102e-05
1.05122e-05
1.06776e-05
1.08309e-05
1.0979e-05
1.11218e-05
1.12566e-05
1.13885e-05
1.15145e-05
1.16293e-05
1.17274e-05
1.18034e-05
1.18521e-05
1.18684e-05
1.18473e-05
1.17843e-05
1.16752e-05
1.15159e-05
1.13033e-05
1.10342e-05
1.07066e-05
1.03189e-05
9.87074e-06
9.3629e-06
8.7976e-06
8.1789e-06
7.51294e-06
6.80818e-06
6.07563e-06
5.32877e-06
4.58324e-06
3.85623e-06
3.16537e-06
2.52739e-06
1.95658e-06
1.46335e-06
1.05318e-06
7.26373e-07
4.78228e-07
3.29249e-07
1.96402e-07
1.02915e-07
5.01273e-08
2.20383e-08
6.8413e-09
1.85187e-09
3.18991e-10
2.13641e-11
8.7545e-14
8.38312e-06
8.68537e-06
8.8436e-06
8.98287e-06
9.11931e-06
9.25642e-06
9.39121e-06
9.52698e-06
9.66311e-06
9.79459e-06
9.91618e-06
1.00227e-05
1.01091e-05
1.01707e-05
1.02029e-05
1.02016e-05
1.01628e-05
1.00831e-05
9.95927e-06
9.78858e-06
9.56875e-06
9.29806e-06
8.9754e-06
8.60046e-06
8.17388e-06
7.69744e-06
7.17432e-06
6.60932e-06
6.00913e-06
5.3825e-06
4.74029e-06
4.09534e-06
3.46207e-06
2.85572e-06
2.29125e-06
1.78201e-06
1.33839e-06
9.66668e-07
6.6851e-07
4.40843e-07
3.02302e-07
1.81571e-07
9.49782e-08
4.61442e-08
2.02317e-08
6.248e-09
1.68215e-09
2.91636e-10
1.91778e-11
7.5628e-14
6.87369e-06
7.0851e-06
7.2065e-06
7.32271e-06
7.44314e-06
7.56802e-06
7.69593e-06
7.82974e-06
7.96499e-06
8.09659e-06
8.21954e-06
8.32905e-06
8.42061e-06
8.49005e-06
8.53351e-06
8.5475e-06
8.52888e-06
8.47483e-06
8.38288e-06
8.25094e-06
8.07729e-06
7.86069e-06
7.60036e-06
7.29614e-06
6.94857e-06
6.55903e-06
6.12996e-06
5.66501e-06
5.16922e-06
4.64927e-06
4.11352e-06
3.57203e-06
3.03638e-06
2.51914e-06
2.03316e-06
1.59046e-06
1.20102e-06
8.71659e-07
6.05225e-07
4.00256e-07
2.73811e-07
1.65376e-07
8.62321e-08
4.17364e-08
1.82705e-08
5.62731e-09
1.48079e-09
2.54723e-10
1.69151e-11
6.35774e-14
5.45204e-06
5.59354e-06
5.68586e-06
5.78249e-06
5.88783e-06
5.99982e-06
6.12066e-06
6.24809e-06
6.37729e-06
6.50348e-06
6.6221e-06
6.72891e-06
6.81999e-06
6.89179e-06
6.94117e-06
6.96529e-06
6.96172e-06
6.92827e-06
6.86313e-06
6.76477e-06
6.63199e-06
6.46394e-06
6.26015e-06
6.02059e-06
5.74574e-06
5.4367e-06
5.0953e-06
4.72421e-06
4.32715e-06
3.90898e-06
3.47586e-06
3.0353e-06
2.59613e-06
2.16826e-06
1.76216e-06
1.38815e-06
1.0554e-06
7.70848e-07
5.38313e-07
3.57863e-07
2.45089e-07
1.49047e-07
7.75327e-08
3.73065e-08
1.62587e-08
5.90997e-09
1.6122e-09
2.83572e-10
2.07141e-11
1.36889e-13
4.17839e-06
4.26997e-06
4.34031e-06
4.42053e-06
4.5116e-06
4.61174e-06
4.7224e-06
4.83923e-06
4.95773e-06
5.07362e-06
5.18289e-06
5.28191e-06
5.36743e-06
5.43656e-06
5.48681e-06
5.51599e-06
5.52226e-06
5.50405e-06
5.46006e-06
5.38926e-06
5.29084e-06
5.1643e-06
5.00941e-06
4.82625e-06
4.61527e-06
4.37733e-06
4.1138e-06
3.82663e-06
3.51847e-06
3.19273e-06
2.85378e-06
2.50696e-06
2.15866e-06
1.81624e-06
1.4878e-06
1.1817e-06
9.05885e-07
6.6698e-07
4.69456e-07
3.14827e-07
2.16757e-07
1.33784e-07
6.97204e-08
3.33882e-08
1.44336e-08
5.24337e-09
1.4345e-09
2.46767e-10
1.73955e-11
1.12277e-13
3.08938e-06
3.1476e-06
3.20165e-06
3.2679e-06
3.34494e-06
3.43362e-06
3.5315e-06
3.63454e-06
3.73885e-06
3.84074e-06
3.93687e-06
4.02427e-06
4.10034e-06
4.16284e-06
4.20985e-06
4.2398e-06
4.25136e-06
4.24343e-06
4.21515e-06
4.16587e-06
4.0951e-06
4.00258e-06
3.88825e-06
3.75227e-06
3.59505e-06
3.41729e-06
3.22002e-06
3.00464e-06
2.77299e-06
2.52745e-06
2.27096e-06
2.00719e-06
1.74051e-06
1.47608e-06
1.21977e-06
9.77922e-07
7.56952e-07
5.62719e-07
3.99845e-07
2.7097e-07
1.85868e-07
1.18421e-07
6.24211e-08
2.98484e-08
1.27701e-08
4.58646e-09
1.247e-09
2.14461e-10
1.52411e-11
9.98047e-14
2.19905e-06
2.23614e-06
2.27806e-06
2.33233e-06
2.39699e-06
2.47269e-06
2.55592e-06
2.64319e-06
2.73118e-06
2.8169e-06
2.89765e-06
2.97113e-06
3.03533e-06
3.08862e-06
3.12961e-06
3.1572e-06
3.17049e-06
3.16877e-06
3.1515e-06
3.11829e-06
3.0689e-06
3.00321e-06
2.92129e-06
2.82332e-06
2.70968e-06
2.58092e-06
2.43781e-06
2.28137e-06
2.11288e-06
1.93394e-06
1.74651e-06
1.553e-06
1.35626e-06
1.15972e-06
9.67345e-07
7.83591e-07
6.13227e-07
4.60942e-07
3.30859e-07
2.25784e-07
1.43956e-07
8.36979e-08
4.38107e-08
2.04256e-08
8.25634e-09
2.71293e-09
6.44802e-10
8.94381e-11
4.40411e-12
2.38198e-14
1.50266e-06
1.52679e-06
1.55935e-06
1.60287e-06
1.6562e-06
1.71842e-06
1.78639e-06
1.85721e-06
1.92824e-06
1.99712e-06
2.06181e-06
2.12059e-06
2.17202e-06
2.21496e-06
2.24846e-06
2.27181e-06
2.28443e-06
2.2859e-06
2.2759e-06
2.25422e-06
2.22077e-06
2.17555e-06
2.11864e-06
2.05025e-06
1.97069e-06
1.8804e-06
1.77995e-06
1.67007e-06
1.55165e-06
1.42576e-06
1.2937e-06
1.15698e-06
1.01743e-06
8.77189e-07
7.38763e-07
6.05055e-07
4.79292e-07
3.64833e-07
2.64898e-07
1.82289e-07
1.17301e-07
6.90094e-08
3.65642e-08
1.71595e-08
6.90048e-09
2.23684e-09
5.24332e-10
7.17931e-11
3.55559e-12
2.05898e-14
9.81824e-07
9.98041e-07
1.02312e-06
1.05707e-06
1.09971e-06
1.14881e-06
1.20193e-06
1.25685e-06
1.31155e-06
1.36427e-06
1.41356e-06
1.45821e-06
1.49725e-06
1.52993e-06
1.55566e-06
1.574e-06
1.58461e-06
1.58726e-06
1.58178e-06
1.56808e-06
1.54615e-06
1.51602e-06
1.4778e-06
1.43166e-06
1.37787e-06
1.31674e-06
1.2487e-06
1.17426e-06
1.09403e-06
1.00874e-06
9.19204e-07
8.26403e-07
7.31448e-07
6.35631e-07
5.40458e-07
4.4768e-07
3.59306e-07
2.77521e-07
2.04522e-07
1.42561e-07
9.27868e-08
5.53728e-08
2.97549e-08
1.40884e-08
5.68051e-09
1.8392e-09
4.30187e-10
5.88857e-11
2.92425e-12
1.69905e-14
6.10072e-07
6.21302e-07
6.40303e-07
6.66192e-07
6.98646e-07
7.35587e-07
7.75142e-07
8.15642e-07
8.55636e-07
8.93909e-07
9.29476e-07
9.61555e-07
9.89542e-07
1.01298e-06
1.03153e-06
1.04495e-06
1.05305e-06
1.05572e-06
1.05288e-06
1.04452e-06
1.03064e-06
1.0113e-06
9.86588e-07
9.56651e-07
9.21673e-07
8.81894e-07
8.37607e-07
7.89163e-07
7.36972e-07
6.81509e-07
6.23309e-07
5.62976e-07
5.01189e-07
4.38708e-07
3.76396e-07
3.15244e-07
2.564e-07
2.01164e-07
1.50886e-07
1.07078e-07
7.09347e-08
4.31095e-08
2.3561e-08
1.13018e-08
4.59397e-09
1.49371e-09
3.50041e-10
4.79598e-11
2.38301e-12
1.38476e-14
3.57825e-07
3.65692e-07
3.7959e-07
3.98631e-07
4.22129e-07
4.48493e-07
4.76366e-07
5.04585e-07
5.32176e-07
5.58356e-07
5.82513e-07
6.04186e-07
6.2303e-07
6.38796e-07
6.51307e-07
6.60439e-07
6.6611e-07
6.68267e-07
6.66887e-07
6.61972e-07
6.53546e-07
6.41656e-07
6.26377e-07
6.07807e-07
5.86077e-07
5.61349e-07
5.33817e-07
5.03711e-07
4.71297e-07
4.36878e-07
4.0079e-07
3.63405e-07
3.25131e-07
2.86411e-07
2.47729e-07
2.09619e-07
1.72689e-07
1.37637e-07
1.0521e-07
7.62789e-08
5.17082e-08
3.21811e-08
1.79885e-08
8.79125e-09
3.62131e-09
1.18706e-09
2.79358e-10
3.83456e-11
1.90636e-12
1.10778e-14
1.96082e-07
2.01541e-07
2.11173e-07
2.24563e-07
2.40615e-07
2.583e-07
2.76718e-07
2.95122e-07
3.12914e-07
3.29635e-07
3.44945e-07
3.58598e-07
3.70422e-07
3.80296e-07
3.88139e-07
3.93897e-07
3.97538e-07
3.99045e-07
3.98414e-07
3.95656e-07
3.90791e-07
3.83856e-07
3.74901e-07
3.63991e-07
3.51208e-07
3.36655e-07
3.20451e-07
3.0274e-07
2.83684e-07
2.63466e-07
2.4229e-07
2.20377e-07
1.97966e-07
1.75311e-07
1.5268e-07
1.30357e-07
1.08647e-07
8.78952e-08
6.84692e-08
5.08005e-08
3.53757e-08
2.26774e-08
1.30588e-08
6.5532e-09
2.75473e-09
9.14946e-10
2.16855e-10
2.98605e-11
1.48606e-12
8.636e-15
9.89565e-08
1.02674e-07
1.09077e-07
1.17778e-07
1.27964e-07
1.38964e-07
1.50227e-07
1.61315e-07
1.719e-07
1.81747e-07
1.90691e-07
1.98618e-07
2.05454e-07
2.1115e-07
2.15674e-07
2.19008e-07
2.21142e-07
2.22072e-07
2.21802e-07
2.20341e-07
2.17704e-07
2.13915e-07
2.09003e-07
2.03007e-07
1.95976e-07
1.87967e-07
1.79051e-07
1.69309e-07
1.58832e-07
1.47726e-07
1.36105e-07
1.24093e-07
1.11824e-07
9.94368e-08
8.70775e-08
7.48943e-08
6.30388e-08
5.16721e-08
4.09608e-08
3.10908e-08
2.22808e-08
1.47809e-08
8.83805e-09
4.60092e-09
1.9943e-09
6.76625e-10
1.62299e-10
2.2469e-11
1.12023e-12
6.5112e-15
4.50352e-08
4.74513e-08
5.14235e-08
5.66123e-08
6.25155e-08
6.87446e-08
7.49985e-08
8.10561e-08
8.67633e-08
9.20174e-08
9.67519e-08
1.00925e-07
1.04509e-07
1.07489e-07
1.09855e-07
1.11603e-07
1.12731e-07
1.13239e-07
1.13131e-07
1.12414e-07
1.11096e-07
1.0919e-07
1.06713e-07
1.03685e-07
1.00131e-07
9.60818e-08
9.1574e-08
8.66495e-08
8.13562e-08
7.57481e-08
6.98845e-08
6.38297e-08
5.76522e-08
5.14238e-08
4.52183e-08
3.91105e-08
3.31741e-08
2.7483e-08
2.21097e-08
1.71279e-08
1.26191e-08
8.67987e-09
5.42456e-09
2.96416e-09
1.3447e-09
4.72453e-10
1.15726e-10
1.61751e-11
8.08937e-13
4.70361e-15
1.79189e-08
1.93642e-08
2.16098e-08
2.43768e-08
2.74179e-08
3.05417e-08
3.36106e-08
3.65325e-08
3.92496e-08
4.17268e-08
4.39435e-08
4.58878e-08
4.75528e-08
4.89347e-08
5.00316e-08
5.0843e-08
5.13692e-08
5.16115e-08
5.15719e-08
5.1254e-08
5.06622e-08
4.98025e-08
4.86827e-08
4.73122e-08
4.5703e-08
4.38693e-08
4.18276e-08
3.95975e-08
3.72011e-08
3.46632e-08
3.20111e-08
2.92743e-08
2.64845e-08
2.36747e-08
2.08787e-08
1.81309e-08
1.54647e-08
1.29129e-08
1.05061e-08
8.27311e-09
6.24175e-09
4.44147e-09
2.90772e-09
1.68461e-09
8.14803e-10
3.03058e-10
7.71318e-11
1.09796e-11
5.52231e-13
3.21327e-15
5.95591e-09
6.73693e-09
7.81974e-09
9.08163e-09
1.04161e-08
1.17466e-08
1.30241e-08
1.42203e-08
1.53195e-08
1.63136e-08
1.71985e-08
1.79719e-08
1.86327e-08
1.91806e-08
1.96154e-08
1.99373e-08
2.01469e-08
2.02447e-08
2.02318e-08
2.01095e-08
1.98798e-08
1.95451e-08
1.91084e-08
1.85736e-08
1.79454e-08
1.72294e-08
1.64322e-08
1.55615e-08
1.4626e-08
1.36355e-08
1.26007e-08
1.15334e-08
1.0446e-08
9.35144e-09
8.26323e-09
7.19493e-09
6.15984e-09
5.1708e-09
4.23982e-09
3.37774e-09
2.59407e-09
1.8972e-09
1.29518e-09
7.97697e-10
4.18184e-10
1.69806e-10
4.64022e-11
6.8628e-12
3.493e-13
2.03536e-15
1.53823e-09
1.88434e-09
2.30389e-09
2.76427e-09
3.23066e-09
3.6812e-09
4.10447e-09
4.49513e-09
4.8509e-09
5.17085e-09
5.45463e-09
5.70213e-09
5.91337e-09
6.0884e-09
6.22731e-09
6.33025e-09
6.39741e-09
6.42902e-09
6.42543e-09
6.38712e-09
6.31469e-09
6.20892e-09
6.07082e-09
5.90161e-09
5.70278e-09
5.47614e-09
5.2238e-09
4.94819e-09
4.65209e-09
4.33862e-09
4.01122e-09
3.67358e-09
3.32967e-09
2.98365e-09
2.63979e-09
2.30241e-09
1.97579e-09
1.66404e-09
1.37102e-09
1.10024e-09
8.54705e-10
6.36843e-10
4.48476e-10
2.90951e-10
1.65765e-10
7.56572e-11
2.34342e-11
3.77564e-12
1.97993e-13
1.15767e-15
2.75604e-10
3.83778e-10
5.00021e-10
6.19502e-10
7.35152e-10
8.43637e-10
9.43794e-10
1.03533e-09
1.11823e-09
1.19256e-09
1.25837e-09
1.31572e-09
1.36463e-09
1.40515e-09
1.43732e-09
1.46116e-09
1.47674e-09
1.48411e-09
1.48335e-09
1.47457e-09
1.45792e-09
1.43358e-09
1.40178e-09
1.36281e-09
1.31701e-09
1.2648e-09
1.20667e-09
1.14318e-09
1.07498e-09
1.00278e-09
9.27384e-10
8.49637e-10
7.7046e-10
6.90809e-10
6.11671e-10
5.34046e-10
4.5892e-10
3.8725e-10
3.19934e-10
2.57793e-10
2.01537e-10
1.51745e-10
1.08835e-10
7.30309e-11
4.43641e-11
2.27799e-11
8.46744e-12
1.64422e-12
9.43063e-14
5.57994e-16
2.81448e-11
4.68853e-11
6.52368e-11
8.28525e-11
9.92176e-11
1.14251e-10
1.27992e-10
1.40493e-10
1.51789e-10
1.61904e-10
1.70855e-10
1.78652e-10
1.85301e-10
1.90809e-10
1.95181e-10
1.98422e-10
2.00541e-10
2.01545e-10
2.01444e-10
2.00255e-10
1.97998e-10
1.94696e-10
1.90382e-10
1.85095e-10
1.78882e-10
1.71799e-10
1.63913e-10
1.55301e-10
1.4605e-10
1.36258e-10
1.26033e-10
1.15491e-10
1.04755e-10
9.39566e-11
8.32289e-11
7.27073e-11
6.2526e-11
5.28146e-11
4.36953e-11
3.52795e-11
2.7665e-11
2.09318e-11
1.51393e-11
1.03216e-11
6.48274e-12
3.59218e-12
1.58835e-12
4.2213e-13
3.21118e-14
2.01618e-16
1.08176e-12