/*--------------------------------*- C++ -*----------------------------------*\
| =========                 |                                                 |
| \\      /  F ield         | foam-extend: Open Source CFD                    |
|  \\    /   O peration     | Version:     4.0                                |
|   \\  /    A nd           | Web:         http://www.foam-extend.org         |
|    \\/     M anipulation  |                                                 |
\*---------------------------------------------------------------------------*/
FoamFile
{
    version     2.0;
    format      ascii;
    class       volScalarField;
    location    "0.0017";
    object      omega;
}
// * * * * * * * * * * * * * * * * * * * * * * * * * * * * * * * * * * * * * //

dimensions      [0 0 -1 0 0 0 0];

internalField   nonuniform List<scalar> 
28770
(
1.87595e+07
1.87595e+07
1.87595e+07
1.87595e+07
1.87595e+07
1.87595e+07
1.87595e+07
1.87595e+07
1.87595e+07
1.87595e+07
1.87595e+07
1.87595e+07
1.87595e+07
1.87595e+07
1.87595e+07
1.87595e+07
1.87595e+07
1.87595e+07
1.87595e+07
1.87595e+07
1.87595e+07
1.87595e+07
1.87595e+07
1.87595e+07
1.87595e+07
1.87595e+07
1.87595e+07
1.87595e+07
1.87595e+07
1.87595e+07
1.87595e+07
1.87595e+07
1.87595e+07
1.87595e+07
1.87595e+07
1.87595e+07
1.87595e+07
1.87595e+07
1.87595e+07
1.87595e+07
1.87595e+07
1.87595e+07
1.87595e+07
1.87595e+07
1.87595e+07
1.87595e+07
1.87595e+07
1.87595e+07
1.87595e+07
1.87595e+07
2.70003e+06
3.18573e+06
3.23008e+06
3.23475e+06
3.23538e+06
3.23549e+06
3.23552e+06
3.23553e+06
3.23554e+06
3.23554e+06
3.23554e+06
3.23554e+06
3.23554e+06
3.23554e+06
3.23554e+06
3.23554e+06
3.23554e+06
3.23554e+06
3.23554e+06
3.23555e+06
3.23555e+06
3.23555e+06
3.23555e+06
3.23555e+06
3.23555e+06
3.23555e+06
3.23555e+06
3.23556e+06
3.23556e+06
3.23556e+06
3.23556e+06
3.23556e+06
3.23557e+06
3.23557e+06
3.23557e+06
3.23558e+06
3.23558e+06
3.23559e+06
3.23559e+06
3.2356e+06
3.23562e+06
3.23565e+06
3.23571e+06
3.23589e+06
3.23648e+06
3.23896e+06
3.2531e+06
3.36215e+06
4.4313e+06
1.79872e+07
679342
1.01711e+06
1.08473e+06
1.09848e+06
1.10156e+06
1.10235e+06
1.10259e+06
1.10267e+06
1.1027e+06
1.10272e+06
1.10272e+06
1.10273e+06
1.10273e+06
1.10273e+06
1.10273e+06
1.10273e+06
1.10273e+06
1.10273e+06
1.10273e+06
1.10273e+06
1.10273e+06
1.10273e+06
1.10274e+06
1.10274e+06
1.10274e+06
1.10274e+06
1.10274e+06
1.10274e+06
1.10274e+06
1.10274e+06
1.10274e+06
1.10275e+06
1.10275e+06
1.10275e+06
1.10276e+06
1.10276e+06
1.10278e+06
1.10279e+06
1.10282e+06
1.10288e+06
1.10299e+06
1.10323e+06
1.10381e+06
1.10532e+06
1.10992e+06
1.12604e+06
1.19193e+06
1.50336e+06
3.24975e+06
1.79872e+07
228567
430981
496263
516076
522230
524266
524997
525284
525407
525464
525492
525507
525515
525520
525523
525525
525526
525528
525528
525529
525530
525531
525531
525532
525533
525535
525536
525538
525540
525543
525547
525553
525561
525572
525589
525616
525658
525730
525855
526086
526537
527476
529577
534675
548188
587442
712736
1.16001e+06
3.12318e+06
1.79872e+07
96084.6
214050
266502
287521
295774
299081
300462
301071
301354
301494
301567
301606
301629
301642
301651
301656
301660
301662
301664
301666
301668
301669
301671
301672
301674
301677
301680
301684
301690
301697
301707
301722
301743
301773
301820
301893
302010
302206
302543
303148
304288
306542
311250
321676
346216
407822
574726
1.08476e+06
3.10621e+06
1.79872e+07
47895.1
118583
157743
176959
185966
190162
192148
193116
193605
193862
194002
194082
194129
194157
194175
194187
194195
194201
194205
194208
194212
194214
194218
194221
194225
194230
194237
194246
194257
194273
194295
194327
194372
194440
194541
194699
194948
195356
196042
197237
199392
203437
211346
227494
262028
340002
530299
1.06583e+06
3.10319e+06
1.79872e+07
27070
71366
99950.1
116250
125014
129620
132040
133328
134028
134418
134642
134774
134855
134905
134937
134959
134973
134984
134992
134998
135004
135009
135015
135022
135029
135039
135051
135068
135089
135119
135161
135220
135306
135430
135617
135901
136344
137051
138209
140158
143534
149562
160674
181884
224022
312386
514657
1.06034e+06
3.10247e+06
1.79872e+07
16748.6
45811.1
66731.8
80067.1
88048
92674.8
95326.4
96848.5
97731.5
98251.9
98564.6
98756.6
98877.2
98954.7
99005.8
99040.3
99064.5
99082.1
99095.4
99106.4
99116
99125.2
99134.9
99145.9
99158.9
99175.3
99196.3
99224
99261.1
99311.8
99382
99480.6
99621.2
99824.9
100125
100576
101265
102340
104052
106839
111487
119424
133349
158532
205907
300419
508649
1.0585e+06
3.10225e+06
1.79872e+07
11086.3
31039.9
46492.4
57223.9
64218
68611.5
71320.5
72980.8
74001.1
74633.4
75030.4
75283.4
75447.4
75555.9
75629.1
75679.7
75715.6
75742.2
75762.7
75779.6
75794.7
75809.2
75824.5
75841.7
75862.3
75888
75920.9
75964.2
76022
76100.2
76207.8
76357.5
76568.9
76871.5
77310.9
77959
78930.5
80411.1
82708
86336.5
92180.4
101791
117976
146057
196850
294902
506127
1.0578e+06
3.10217e+06
1.79872e+07
7724.06
21954.7
33552.7
42157.8
48160
52187
54828.1
56540.7
57648.1
58366.3
58835.5
59145.4
59352.6
59493.4
59590.7
59659.4
59709.2
59746.6
59775.9
59800.4
59822.4
59843.7
59866.3
59891.8
59922.2
59959.9
60008.2
60071.3
60154.9
60267.4
60420.8
60632.1
60927.1
61343.8
61939.9
62804.2
64074.7
65969.1
68836
73242.9
80132.2
91108.6
109007
139106
192069
292159
504946
1.05749e+06
3.10214e+06
1.79872e+07
5602.28
16080.5
24931.5
31866.1
36966.8
40578.5
43073.6
44772.3
45921.1
46697
47223
47581.9
47829.1
48001.5
48123.5
48211.4
48276.4
48326.1
48365.7
48399.2
48429.6
48459.3
48490.9
48526.5
48569
48621.5
48688.4
48775.2
48889.5
49042.2
49248.2
49529.4
49917.1
50457.5
51219.3
52305.4
53872.4
56161.5
59549.1
64632.7
72381.3
84412.8
103546
134999
189314
290592
504250
1.05728e+06
3.10211e+06
1.79872e+07
4199.75
12132.6
19021.7
24635.6
28951.6
32148.5
34456.8
36096
37249.1
38056.9
38623.1
39021.3
39303.3
39504.9
39650.9
39758.3
39839.3
39902.2
39953.2
39997
40037.1
40076.7
40118.8
40166.4
40223.1
40292.9
40381.2
40495.1
40644.1
40841.4
41105.3
41461.5
41946.9
42614.7
43542.4
44844
46689.3
49334.7
53172.1
58811.9
67228.1
80027.5
99997.4
132299
187400
289338
503510
1.05694e+06
3.10203e+06
1.79872e+07
3237.87
9390.61
14848.1
19429.1
23083.1
25893.6
28000.4
29552.3
30682.5
31500.6
32091.6
32519.1
32829.7
33057
33225.3
33351.6
33448.7
33525.4
33588.6
33643.5
33694.5
33745.2
33799.3
33860.5
33933
34022.1
34134.2
34277.9
34464.5
34709.4
35033.9
35467.4
36051.4
36844.7
37931.2
39432.7
41527.2
44478.4
48684.1
54755.6
63657.3
76965.5
97426.4
130144
185531
287612
501891
1.05565e+06
3.10147e+06
1.79872e+07
2558.4
7433.45
11827.4
15598.8
18706.2
21171.5
23079.4
24529.9
25619.1
26430.8
27033.4
27480.7
27813.5
28062.5
28250.7
28394.8
28507.4
28598
28673.8
28740.6
28803.2
28866
28933.1
29009.1
29099
29208.9
29346.4
29521.6
29747.4
30041.3
30427.1
30937.4
31617.2
32529.2
33762.1
35441.8
37749.6
40950.9
45440.8
51823.8
61050
74630.3
95257.1
127938
182950
284175
497102
1.0496e+06
3.09626e+06
1.79872e+07
2066.95
6005.32
9598.72
12739.2
15393.3
17556.5
19277.3
20622
21659.4
22452.9
23056.8
23515.6
23864.6
24131.2
24336.6
24496.8
24624.2
24728.4
24816.8
24895.7
24970.5
25045.9
25126.9
25218.5
25326.6
25458.2
25622.1
25829.4
26094.8
26437.5
26883.4
27467.5
28237.4
29258.5
30621.9
32454.9
34938.4
38333.5
43025.5
49604.6
59040.9
72671.5
93149.8
125276
178908
276994
482936
1.0205e+06
3.04088e+06
1.79872e+07
1704.83
4944.72
7928.39
10575
12854.6
14758.2
16308.9
17550.2
18530.8
19298.5
19896
20359.6
20719.5
20999.8
21219.6
21394.1
21535.1
21652.1
21753
21844
21931
22019.4
22114.5
22222.2
22348.9
22502.5
22692.9
22932.2
23236.4
23626.3
24129.5
24782.5
25634.7
26753.2
28229.7
30190.9
32814.7
36353.4
41171
47797.2
54455
67524.5
85761.4
113793
159313
239314
397209
770856
2.00888e+06
1.20425e+07
1434.21
4146.3
6661.08
8918.35
10889.9
12573.8
13974.2
15118.5
16041.7
16779.5
17365.2
17828.7
18195.1
18485.5
18717.1
18903.9
19057.2
19186.2
19298.8
19401.6
19500.8
19602
19711.3
19834.9
19980
20155.4
20371.6
20641.8
20983.2
21417.5
21973.7
22689.5
23615.2
24818.5
26390.8
28457.3
31191.6
34839
39753.2
46460.6
53159.5
66017.2
83946.1
111254
155230
231983
383211
747004
2.01428e+06
1.24056e+07
1229.92
3539.41
5691.28
7641.18
9364.96
10861.1
12130
13186.2
14054.1
14760.5
15331.4
15791.1
16160.6
16458.2
16699.1
16896.3
17060.4
17200.4
17323.9
17438
17548.8
17662.5
17785.4
17924.4
18087.4
18283.6
18524.3
18823.7
19199.5
19674.8
20278.9
21050.5
22040.4
23316
24967.7
27118.5
29937.9
33664.1
38640.4
45376.9
52092.4
64727.8
82354.1
109032
151800
226410
373586
730629
1.98884e+06
1.23851e+07
1074.81
3075.56
4945.75
6653.1
8177.78
9515.71
10671.8
11650.1
12467
13142.6
13697.4
14151
14521.1
14823.4
15071.7
15277.5
15450.9
15600.6
15734.1
15858.5
15980.1
16105.5
16241.4
16394.9
16574.6
16790.2
17053.7
17379.7
17786.9
18298.7
18945.2
19765.4
20809.9
22145.8
23861.9
26078.8
28961.5
32741.8
37752.8
44489.2
51197.6
63622.2
80963.7
107075
148648
233624
388255
766372
2.12092e+06
1.69429e+07
956.921
2720.84
4372.77
5889.62
7255.41
8464.65
9523.27
10434.1
11205.4
11852.4
12391.2
12837.5
13206.6
13511.9
13765.6
13978.4
14159.7
14317.8
14460.2
14593.8
14725.4
14861.4
15009.1
15175.9
15370.8
15604
15887.8
16237.7
16672.6
17216.3
17899.3
18760.6
19850.7
21235.5
23002.8
25269.9
28198.1
32012.6
37037.6
43754.1
50437.3
62664.3
79744.4
105379
146094
229158
379514
745801
2.07415e+06
1.69162e+07
867.815
2451.18
3935.32
5304.09
6544.7
7651.85
8628.14
9481.1
10213.5
10835.1
11358.8
11797.9
12164.9
12471.8
12729.6
12947.9
13135.7
13300.9
13451
13592.7
13732.9
13878.3
14036.4
14215
14423.2
14671.8
14973.4
15343.8
15802.3
16373.1
17086.7
17981.9
19108.9
20532.7
22339.2
24643.3
27602.3
31435.6
36458.9
43140.9
49784.4
61820
78649.1
103861
143879
225595
373937
737732
2.06686e+06
1.69155e+07
801.474
2249.37
3606.77
4862.68
6006.88
7034.54
7946.5
8749.85
9449.35
10049.5
10560.2
10992.4
11357.1
11664.8
11925.5
12148.1
12341.1
12512.1
12668.4
12816.9
12964.3
13117.8
13284.7
13473.2
13692.7
13954.1
14270.6
14658.1
15136.1
15728.9
16467.2
17389.5
18545.4
19999.1
21834.7
24165
27143.3
30983.8
35994
42630.6
49224.1
61061.6
77622.3
102381
141642
221722
367223
723771
2.02444e+06
1.67945e+07
753.626
2103.17
3368.05
4541
5613.74
6581.96
7445.87
8209.85
8881.95
9465.21
9965.46
10392
10754.5
11062.5
11325.1
11550.9
11747.8
11923.4
12084.6
12238.4
12391.7
12551.5
12725.4
12921.8
13150.3
13422
13750.2
14151.1
14644.3
15254.3
16011.4
16954.3
18131.8
19607.4
21463.8
23811.5
26800.7
30640.5
35631.1
42216.8
48757.9
60380.5
76637.4
100844
139081
216564
356839
696618
2.07531e+06
1.19259e+07
721.301
2004.02
3205.78
4321.85
5345.28
6272.22
7102.56
7839.65
8489.94
9060.19
9553.13
9975.58
10336.4
10644.4
10908.4
11136.3
11336
11514.8
11679.5
11837.2
11994.7
12159.1
12338.2
12540.4
12775.4
13054.5
13391.3
13801.8
14305.9
14928
15698.6
16655.9
17848.4
19338.8
21208.9
23567.4
26561.7
30397.1
35367
41904.5
48404.2
59800.4
75734.3
99297.8
136186
209796
341312
658649
1.98781e+06
1.18219e+07
702.347
1945.68
3110.12
4192.43
5186.49
6088.71
6898.87
7619.84
8257.08
8817.88
9306.32
9726.44
10086.2
10394.3
10659
10888.2
11089.6
11270.3
11437.2
11597.3
11757.4
11924.7
12106.9
12312.6
12551.7
12835.4
13177.4
13593.8
14104.6
14734.1
15512.8
16478.7
17680.2
19179.4
21057.3
23421.5
26417.9
30248.7
35202.7
41704.4
48189
59374.5
75027.1
97983.5
133451
202522
320423
584013
1.29141e+06
5.51145e+06
696.172
1926.53
3078.62
4149.73
5134.01
6027.98
6831.39
7546.96
8179.88
8737.09
9223.97
9643.44
10002.9
10311
10575.9
10805.6
11007.5
11188.8
11356.5
11517.4
11678.4
11846.6
12029.9
12236.9
12477.3
12762.5
13106.2
13524.7
14037.7
14669.8
15451.2
16420
17624.4
19126.5
21006.9
23373
26369.7
30198.6
35146.6
41635.1
48144.9
59171.5
74676
97295.4
131913
198525
307017
524209
966451
1.97549e+06
702.599
1946.06
3110.53
4192.82
5186.83
6089.01
6899.12
7620.03
8257.21
8817.95
9306.39
9726.52
10086.3
10394.4
10659
10888.3
11089.6
11270.3
11437.3
11597.3
11757.4
11924.7
12106.9
12312.6
12551.7
12835.4
13177.3
13593.8
14104.5
14734.1
15512.8
16478.7
17680.2
19179.4
21057.3
23421.5
26417.8
30248.7
35202.6
41704.4
48278.8
59240.4
74796.2
97533.8
132454
201026
315542
563053
1.22955e+06
4.58232e+06
721.799
2004.75
3206.56
4322.59
5345.94
6272.78
7103.02
7840
8490.16
9060.35
9553.29
9975.73
10336.5
10644.6
10908.5
11136.4
11336.1
11514.8
11679.6
11837.3
11994.7
12159.2
12338.2
12540.4
12775.4
13054.5
13391.2
13801.7
14305.8
14928
15698.5
16655.8
17848.3
19338.8
21208.9
23567.3
26561.6
30397.1
35367
41904.4
48567.9
59564.7
75347.7
98591.1
134748
207934
336399
643653
1.63924e+06
1.17234e+07
754.354
2104.22
3369.15
4542.04
5614.65
6582.73
7446.48
8210.29
8882.24
9465.46
9965.7
10392.2
10754.7
11062.7
11325.3
11551
11747.9
11923.4
12084.7
12238.5
12391.7
12551.5
12725.4
12921.8
13150.2
13421.9
13750.2
14151
14644.2
15254.1
16011.3
16954.2
18131.7
19607.3
21463.7
23811.4
26800.6
30640.5
35631.1
42216.7
48981.3
60074.9
76169.9
100062
137658
215020
353548
689283
1.74968e+06
1.19199e+07
802.399
2250.69
3608.14
4863.95
6007.98
7035.45
7947.2
8750.28
9449.7
10049.9
10560.5
10992.7
11357.4
11665.1
11925.7
12148.3
12341.2
12512.2
12668.5
12816.9
12964.4
13117.8
13284.6
13473.1
13692.6
13954
14270.5
14658
15136
15728.8
16467
17389.3
18545.2
19998.9
21834.6
24164.9
27143.2
30983.7
35994
42630.6
49495.9
60710.6
77124
101621
140412
220580
365000
717755
1.99367e+06
1.63316e+07
868.901
2452.7
3936.88
5305.51
6545.91
7652.82
8628.81
9481.59
10213.9
10835.5
11359.2
11798.2
12165.2
12472.1
12729.8
12948.1
13135.9
13301.1
13451
13592.7
13732.9
13878.3
14036.4
14214.9
14423.1
14671.7
14973.3
15343.7
15802.2
16372.9
17086.5
17981.7
19108.7
20532.5
22339
24643.2
27602.2
31435.5
36458.8
43140.8
50101.4
61431.1
78129.9
103124
142786
224706
372516
735377
2.06316e+06
1.69144e+07
958.128
2722.5
4374.44
5891.11
7256.64
8465.59
9523.95
10434.6
11205.9
11852.8
12391.5
12837.9
13206.9
13512.1
13765.8
13978.6
14159.8
14317.9
14460.3
14593.9
14725.4
14861.4
15009
15175.9
15370.7
15603.9
15887.7
16237.6
16672.4
17216.1
17899.1
18760.4
19850.5
21235.4
23002.6
25269.8
28197.9
32012.5
37037.5
43754.1
50805
62229.9
79184.8
104606
144966
228227
377992
743465
2.07208e+06
1.69161e+07
1076.09
3077.28
4947.45
6654.58
8178.96
9516.52
10672.4
11650.6
12467.4
13143
13697.8
14151.3
14521.4
14823.7
15071.9
15277.7
15451
15600.7
15734.2
15858.5
15980.2
16105.5
16241.3
16394.9
16574.5
16790.1
17053.5
17379.6
17786.8
18298.5
18945
19765.2
20809.7
22145.6
23861.8
26078.6
28961.4
32741.7
37752.8
44489.2
51628.2
63126.8
80335.1
106197
147307
232377
385579
758737
2.09669e+06
1.69197e+07
1231.24
3541.14
5692.93
7642.57
9366.02
10861.8
12130.6
13186.7
14054.5
14760.8
15331.8
15791.4
16160.8
16458.4
16699.3
16896.5
17060.5
17200.5
17324
17438
17548.8
17662.4
17785.3
17924.3
18087.3
18283.4
18524.2
18823.5
19199.4
19674.6
20278.7
21050.3
22040.2
23315.8
24967.5
27118.3
29937.7
33664
38640.3
45376.9
52603.2
64154.3
81635.5
108022
150207
223884
368227
716066
1.93327e+06
1.21638e+07
1435.51
4147.97
6662.62
8919.59
10890.8
12574.5
13974.8
15119
16042.1
16779.8
17365.5
17828.9
18195.3
18485.7
18717.3
18904
19057.3
19186.3
19298.9
19401.7
19500.8
19602
19711.2
19834.8
19979.9
20155.3
20371.4
20641.7
20983
21417.4
21973.5
22689.3
23615
24818.4
26390.6
28457.1
31191.5
34838.9
39753.1
46460.6
53775
65347.1
83122.9
110106
153455
229078
378377
739921
2.00771e+06
1.24058e+07
1706.08
4946.26
7929.77
10576.1
12855.4
14758.7
16309.4
17550.6
18531.2
19298.8
19896.2
20359.8
20719.7
20999.9
21219.7
21394.2
21535.2
21652.2
21753
21844
21931
22019.4
22114.5
22222.1
22348.8
22502.4
22692.8
22932.1
23236.3
23626.2
24129.3
24782.3
25634.5
26753
28229.5
30190.8
32814.6
36353.3
41170.9
47797.2
55230.8
66742.4
84826.3
112484
157177
235338
389118
755710
2.01694e+06
1.23779e+07
2068.11
6006.69
9599.89
12740.1
15393.9
17557
19277.7
20622.3
21659.7
22453.1
23057
23515.7
23864.7
24131.3
24336.7
24496.9
24624.3
24728.4
24816.8
24895.8
24970.5
25045.9
25126.8
25218.4
25326.5
25458.1
25622
25829.3
26094.7
26437.4
26883.3
27467.4
28237.2
29258.4
30621.7
32454.7
34938.3
38333.4
43025.4
49604.6
59040.9
72671.5
93149.8
125276
178908
276994
482936
1.0205e+06
3.04088e+06
1.79872e+07
2559.44
7434.62
11828.3
15599.4
18706.6
21171.8
23079.7
24530.1
25619.2
26430.9
27033.5
27480.8
27813.5
28062.6
28250.7
28394.8
28507.4
28598
28673.8
28740.6
28803.2
28865.9
28933.1
29009
29098.9
29208.8
29346.4
29521.5
29747.3
30041.2
30427
30937.3
31617
32529.1
33762
35441.7
37749.5
40950.8
45440.7
51823.7
61050
74630.3
95257
127938
182950
284175
497102
1.0496e+06
3.09626e+06
1.79872e+07
3238.77
9391.55
14848.8
19429.5
23083.4
25893.8
28000.6
29552.4
30682.6
31500.7
32091.7
32519.1
32829.7
33057.1
33225.3
33351.7
33448.7
33525.4
33588.6
33643.5
33694.5
33745.2
33799.2
33860.4
33933
34022.1
34134.2
34277.8
34464.4
34709.3
35033.8
35467.3
36051.3
36844.6
37931.1
39432.6
41527.1
44478.4
48684.1
54755.6
63657.3
76965.5
97426.4
130144
185531
287612
501891
1.05565e+06
3.10147e+06
1.79872e+07
4200.49
12133.3
19022.1
24635.8
28951.8
32148.6
34456.8
36096
37249.1
38057
38623.1
39021.3
39303.3
39504.9
39650.9
39758.3
39839.3
39902.2
39953.2
39996.9
40037.1
40076.7
40118.8
40166.4
40223
40292.8
40381.1
40495.1
40644.1
40841.4
41105.2
41461.4
41946.8
42614.7
43542.3
44843.9
46689.3
49334.7
53172
58811.9
67228.1
80027.4
99997.4
132299
187400
289338
503510
1.05694e+06
3.10203e+06
1.79872e+07
5602.84
16080.9
24931.7
31866.1
36966.8
40578.5
43073.6
44772.3
45921
46697
47223
47581.9
47829.1
48001.5
48123.4
48211.4
48276.4
48326.1
48365.7
48399.2
48429.5
48459.3
48490.8
48526.5
48569
48621.5
48688.4
48775.1
48889.5
49042.1
49248.2
49529.3
49917
50457.5
51219.2
52305.3
53872.4
56161.4
59549
64632.7
72381.2
84412.8
103546
134999
189314
290592
504250
1.05728e+06
3.10211e+06
1.79872e+07
7724.4
21954.7
33552.6
42157.6
48159.9
52187
54828
56540.6
57648
58366.2
58835.5
59145.3
59352.6
59493.4
59590.7
59659.4
59709.2
59746.6
59775.9
59800.4
59822.3
59843.7
59866.3
59891.8
59922.2
59959.9
60008.2
60071.2
60154.9
60267.4
60420.7
60632.1
60927.1
61343.8
61939.9
62804.2
64074.7
65969.1
68836
73242.9
80132.1
91108.6
109007
139106
192069
292159
504946
1.05749e+06
3.10214e+06
1.79872e+07
11086.3
31039.4
46491.9
57223.5
64217.8
68611.4
71320.4
72980.7
74001
74633.4
75030.3
75283.3
75447.4
75555.8
75629
75679.6
75715.6
75742.2
75762.7
75779.6
75794.7
75809.2
75824.5
75841.7
75862.3
75888
75920.9
75964.2
76021.9
76100.2
76207.8
76357.5
76568.9
76871.4
77310.9
77959
78930.4
80411.1
82708
86336.4
92180.4
101791
117976
146057
196850
294902
506127
1.0578e+06
3.10217e+06
1.79872e+07
16748.2
45809.5
66730.7
80066.5
88047.7
92674.6
95326.3
96848.4
97731.4
98251.8
98564.6
98756.6
98877.1
98954.7
99005.7
99040.3
99064.5
99082
99095.4
99106.3
99116
99125.2
99134.9
99145.9
99158.9
99175.3
99196.3
99224
99261.2
99311.8
99382
99480.6
99621.2
99825
100125
100576
101265
102340
104051
106839
111487
119424
133349
158532
205907
300419
508649
1.0585e+06
3.10225e+06
1.79872e+07
27069.1
71361.5
99948.4
116250
125014
129620
132040
133328
134028
134418
134642
134774
134854
134905
134937
134959
134973
134984
134992
134998
135004
135009
135015
135022
135029
135039
135051
135068
135089
135120
135161
135220
135306
135430
135617
135901
136344
137051
138209
140158
143534
149562
160674
181884
224022
312386
514657
1.06034e+06
3.10247e+06
1.79872e+07
47894.6
118582
157742
176959
185966
190161
192148
193116
193605
193862
194002
194082
194129
194157
194175
194187
194195
194201
194205
194208
194212
194214
194218
194221
194225
194230
194237
194246
194257
194273
194295
194327
194372
194440
194541
194699
194948
195356
196042
197237
199392
203437
211346
227494
262028
340002
530299
1.06583e+06
3.10319e+06
1.79872e+07
96084.5
214049
266501
287521
295774
299080
300462
301071
301354
301494
301567
301606
301629
301642
301651
301656
301660
301662
301664
301666
301668
301669
301671
301672
301674
301677
301680
301684
301690
301697
301707
301722
301743
301773
301820
301893
302010
302206
302543
303148
304288
306542
311250
321676
346216
407822
574726
1.08476e+06
3.10621e+06
1.79872e+07
228567
430980
496263
516076
522230
524266
524997
525284
525407
525464
525492
525507
525515
525520
525523
525525
525526
525528
525528
525529
525530
525531
525531
525532
525533
525535
525536
525538
525540
525543
525547
525553
525561
525572
525589
525616
525658
525730
525855
526086
526537
527476
529577
534675
548188
587442
712736
1.16001e+06
3.12318e+06
1.79872e+07
679342
1.01711e+06
1.08473e+06
1.09848e+06
1.10156e+06
1.10235e+06
1.10259e+06
1.10267e+06
1.1027e+06
1.10272e+06
1.10272e+06
1.10273e+06
1.10273e+06
1.10273e+06
1.10273e+06
1.10273e+06
1.10273e+06
1.10273e+06
1.10273e+06
1.10273e+06
1.10273e+06
1.10273e+06
1.10274e+06
1.10274e+06
1.10274e+06
1.10274e+06
1.10274e+06
1.10274e+06
1.10274e+06
1.10274e+06
1.10274e+06
1.10275e+06
1.10275e+06
1.10275e+06
1.10276e+06
1.10276e+06
1.10278e+06
1.10279e+06
1.10282e+06
1.10288e+06
1.10299e+06
1.10323e+06
1.10381e+06
1.10532e+06
1.10992e+06
1.12604e+06
1.19193e+06
1.50336e+06
3.24975e+06
1.79872e+07
2.70003e+06
3.18573e+06
3.23008e+06
3.23475e+06
3.23538e+06
3.23549e+06
3.23552e+06
3.23553e+06
3.23554e+06
3.23554e+06
3.23554e+06
3.23554e+06
3.23554e+06
3.23554e+06
3.23554e+06
3.23554e+06
3.23554e+06
3.23554e+06
3.23554e+06
3.23555e+06
3.23555e+06
3.23555e+06
3.23555e+06
3.23555e+06
3.23555e+06
3.23555e+06
3.23555e+06
3.23556e+06
3.23556e+06
3.23556e+06
3.23556e+06
3.23556e+06
3.23557e+06
3.23557e+06
3.23557e+06
3.23558e+06
3.23558e+06
3.23559e+06
3.23559e+06
3.2356e+06
3.23562e+06
3.23565e+06
3.23571e+06
3.23589e+06
3.23648e+06
3.23896e+06
3.2531e+06
3.36215e+06
4.4313e+06
1.79872e+07
1.87595e+07
1.87595e+07
1.87595e+07
1.87595e+07
1.87595e+07
1.87595e+07
1.87595e+07
1.87595e+07
1.87595e+07
1.87595e+07
1.87595e+07
1.87595e+07
1.87595e+07
1.87595e+07
1.87595e+07
1.87595e+07
1.87595e+07
1.87595e+07
1.87595e+07
1.87595e+07
1.87595e+07
1.87595e+07
1.87595e+07
1.87595e+07
1.87595e+07
1.87595e+07
1.87595e+07
1.87595e+07
1.87595e+07
1.87595e+07
1.87595e+07
1.87595e+07
1.87595e+07
1.87595e+07
1.87595e+07
1.87595e+07
1.87595e+07
1.87595e+07
1.87595e+07
1.87595e+07
1.87595e+07
1.87595e+07
1.87595e+07
1.87595e+07
1.87595e+07
1.87595e+07
1.87595e+07
1.87595e+07
1.87595e+07
1.87595e+07
6.64501e+07
6.76664e+07
6.76661e+07
6.76663e+07
6.7678e+07
6.73023e+07
6.7666e+07
6.76656e+07
6.7666e+07
6.7666e+07
6.7666e+07
6.7666e+07
6.76661e+07
6.76661e+07
6.76661e+07
6.7666e+07
6.7666e+07
6.7666e+07
6.7666e+07
6.76636e+07
3.1046e+06
3.316e+06
3.32433e+06
3.32382e+06
3.31223e+06
3.29837e+06
3.31005e+06
3.31667e+06
3.32432e+06
3.32455e+06
3.32456e+06
3.32456e+06
3.32456e+06
3.32456e+06
3.32456e+06
3.32456e+06
3.32455e+06
3.32449e+06
3.3223e+06
3.25298e+06
1.15729e+07
1.19501e+07
1.19517e+07
1.19515e+07
1.19571e+07
1.19645e+07
1.19468e+07
1.19512e+07
1.19517e+07
1.19517e+07
1.19517e+07
1.19517e+07
1.19517e+07
1.19517e+07
1.19517e+07
1.19517e+07
1.19517e+07
1.19517e+07
1.19512e+07
1.19092e+07
1.87595e+07
1.87595e+07
1.87595e+07
1.87595e+07
1.87595e+07
1.87595e+07
1.87595e+07
1.87595e+07
1.87595e+07
1.87595e+07
1.87595e+07
1.87595e+07
1.87595e+07
1.87595e+07
1.87595e+07
1.87595e+07
1.87595e+07
1.87595e+07
1.87595e+07
1.87595e+07
1.87595e+07
1.87595e+07
1.87595e+07
1.87595e+07
1.87595e+07
1.87595e+07
1.87595e+07
1.87595e+07
1.87595e+07
1.87595e+07
1.87595e+07
1.87595e+07
1.87595e+07
1.87595e+07
1.87595e+07
1.87595e+07
1.87595e+07
1.87595e+07
1.87595e+07
1.87595e+07
1.87595e+07
1.87595e+07
1.87595e+07
1.87595e+07
1.87595e+07
1.87595e+07
1.87595e+07
1.87595e+07
1.87595e+07
1.87595e+07
1.87595e+07
1.87595e+07
1.87595e+07
1.87595e+07
1.87595e+07
1.87595e+07
1.87595e+07
1.87595e+07
1.87595e+07
1.87595e+07
1.87595e+07
1.87595e+07
1.87595e+07
1.87595e+07
1.87595e+07
1.87595e+07
1.87595e+07
1.87595e+07
1.87595e+07
1.87595e+07
1.87595e+07
1.87595e+07
1.87595e+07
1.87595e+07
1.87595e+07
1.87595e+07
1.87595e+07
1.87595e+07
1.87595e+07
1.87595e+07
1.87595e+07
1.87595e+07
1.87595e+07
1.87595e+07
1.87595e+07
1.87595e+07
1.87595e+07
1.87595e+07
1.87595e+07
1.87595e+07
1.87595e+07
1.87595e+07
1.87595e+07
1.87595e+07
1.87595e+07
1.87595e+07
1.87595e+07
1.87595e+07
1.87595e+07
1.87595e+07
1.79872e+07
4.43129e+06
3.36207e+06
3.25301e+06
3.23887e+06
3.23639e+06
3.23581e+06
3.23563e+06
3.23557e+06
3.23555e+06
3.23554e+06
3.23553e+06
3.23553e+06
3.23553e+06
3.23553e+06
3.23553e+06
3.23553e+06
3.23553e+06
3.23553e+06
3.23553e+06
3.23553e+06
3.23553e+06
3.23553e+06
3.23553e+06
3.23554e+06
3.23554e+06
3.23554e+06
3.23554e+06
3.23554e+06
3.23554e+06
3.23554e+06
3.23554e+06
3.23554e+06
3.23554e+06
3.23554e+06
3.23554e+06
3.23554e+06
3.23554e+06
3.23554e+06
3.23554e+06
3.23554e+06
3.23554e+06
3.23554e+06
3.23554e+06
3.23554e+06
3.23554e+06
3.23554e+06
3.23554e+06
3.23554e+06
3.23554e+06
3.23554e+06
3.23554e+06
3.23554e+06
3.23554e+06
3.23554e+06
3.23554e+06
3.23554e+06
3.23554e+06
3.23554e+06
3.23554e+06
3.23554e+06
3.23554e+06
3.23554e+06
3.23554e+06
3.23554e+06
3.23554e+06
3.23554e+06
3.23554e+06
3.23554e+06
3.23554e+06
3.23554e+06
3.23554e+06
3.23554e+06
3.23554e+06
3.23554e+06
3.23554e+06
3.23554e+06
3.23554e+06
3.23554e+06
3.23554e+06
3.23554e+06
3.23554e+06
3.23554e+06
3.23554e+06
3.23554e+06
3.23554e+06
3.23554e+06
3.23554e+06
3.23554e+06
3.23554e+06
3.23554e+06
3.23554e+06
3.23554e+06
3.23554e+06
3.23554e+06
3.23554e+06
3.23554e+06
3.23554e+06
3.23554e+06
3.23554e+06
1.79872e+07
3.24983e+06
1.50336e+06
1.19189e+06
1.126e+06
1.10987e+06
1.10527e+06
1.10376e+06
1.10319e+06
1.10295e+06
1.10284e+06
1.10278e+06
1.10276e+06
1.10274e+06
1.10273e+06
1.10273e+06
1.10273e+06
1.10273e+06
1.10273e+06
1.10273e+06
1.10273e+06
1.10273e+06
1.10273e+06
1.10273e+06
1.10273e+06
1.10273e+06
1.10273e+06
1.10273e+06
1.10273e+06
1.10273e+06
1.10273e+06
1.10273e+06
1.10273e+06
1.10273e+06
1.10273e+06
1.10273e+06
1.10273e+06
1.10273e+06
1.10273e+06
1.10273e+06
1.10273e+06
1.10273e+06
1.10273e+06
1.10273e+06
1.10273e+06
1.10273e+06
1.10273e+06
1.10273e+06
1.10273e+06
1.10273e+06
1.10273e+06
1.10273e+06
1.10273e+06
1.10273e+06
1.10273e+06
1.10273e+06
1.10273e+06
1.10273e+06
1.10273e+06
1.10273e+06
1.10273e+06
1.10273e+06
1.10273e+06
1.10273e+06
1.10273e+06
1.10273e+06
1.10273e+06
1.10273e+06
1.10273e+06
1.10273e+06
1.10273e+06
1.10273e+06
1.10273e+06
1.10273e+06
1.10273e+06
1.10273e+06
1.10273e+06
1.10273e+06
1.10273e+06
1.10273e+06
1.10273e+06
1.10273e+06
1.10273e+06
1.10273e+06
1.10273e+06
1.10273e+06
1.10273e+06
1.10273e+06
1.10273e+06
1.10273e+06
1.10273e+06
1.10273e+06
1.10273e+06
1.10273e+06
1.10273e+06
1.10273e+06
1.10273e+06
1.10273e+06
1.10273e+06
1.10273e+06
1.79872e+07
3.12328e+06
1.16005e+06
712737
587420
548153
534634
529534
527433
526496
526047
525818
525696
525627
525588
525564
525549
525540
525535
525531
525529
525528
525527
525526
525526
525526
525526
525526
525526
525526
525526
525526
525526
525526
525526
525526
525527
525527
525527
525527
525527
525527
525527
525527
525527
525527
525527
525527
525527
525527
525527
525527
525527
525527
525527
525527
525527
525527
525527
525527
525527
525527
525527
525527
525527
525527
525527
525527
525527
525527
525527
525527
525527
525527
525527
525527
525527
525527
525527
525527
525527
525527
525527
525527
525527
525527
525527
525527
525527
525527
525527
525527
525527
525527
525527
525527
525527
525527
525527
525527
1.79872e+07
3.10631e+06
1.08482e+06
574753
407825
346201
321650
311217
306506
304252
303114
302510
302176
301983
301868
301798
301754
301726
301707
301695
301686
301681
301677
301674
301672
301670
301669
301668
301668
301667
301667
301667
301666
301666
301666
301666
301666
301666
301666
301666
301666
301666
301666
301665
301665
301665
301665
301665
301665
301665
301665
301665
301665
301665
301665
301665
301665
301665
301665
301665
301665
301665
301665
301665
301665
301665
301665
301665
301665
301665
301665
301665
301665
301665
301665
301665
301665
301665
301665
301665
301665
301665
301665
301665
301665
301665
301665
301665
301665
301665
301665
301665
301665
301665
301665
301665
301665
301665
301665
301665
1.79872e+07
3.1033e+06
1.0659e+06
530345
340027
262034
227485
211328
203413
199366
197210
196017
195333
194928
194681
194526
194427
194363
194319
194290
194270
194255
194245
194237
194232
194227
194224
194222
194220
194218
194217
194215
194215
194214
194213
194213
194212
194212
194212
194211
194211
194211
194211
194211
194211
194210
194210
194210
194210
194210
194210
194210
194210
194210
194210
194209
194209
194209
194209
194209
194209
194209
194209
194209
194209
194209
194209
194209
194209
194209
194209
194209
194209
194209
194209
194209
194209
194209
194209
194209
194209
194209
194209
194209
194209
194209
194209
194209
194209
194209
194209
194209
194209
194209
194209
194209
194209
194209
194209
194209
1.79872e+07
3.10259e+06
1.06041e+06
514716
312429
224047
181894
160673
149553
143521
140144
138195
137039
136334
135894
135614
135430
135309
135226
135169
135129
135100
135079
135064
135052
135043
135036
135030
135026
135022
135019
135017
135015
135013
135011
135010
135009
135008
135008
135007
135006
135006
135006
135005
135005
135005
135004
135004
135004
135004
135003
135003
135003
135003
135003
135003
135002
135002
135002
135002
135002
135002
135002
135002
135002
135001
135001
135001
135001
135001
135001
135001
135001
135001
135001
135001
135001
135001
135001
135001
135001
135001
135001
135001
135001
135001
135001
135001
135001
135001
135001
135001
135001
135001
135001
135001
135001
135001
135001
135001
1.79872e+07
3.10238e+06
1.05858e+06
508718
300475
205950
158560
133365
119433
111490
106842
104054
102345
101273
100588
100142
99845.2
99644.8
99507.1
99410.8
99342.3
99292.7
99256
99228.5
99207.4
99191
99178
99167.6
99159.1
99152.2
99146.5
99141.7
99137.7
99134.4
99131.6
99129.3
99127.3
99125.7
99124.3
99123.1
99122
99121.1
99120.3
99119.7
99119.1
99118.5
99118.1
99117.7
99117.3
99117
99116.7
99116.4
99116.2
99115.9
99115.6
99115.3
99115.1
99114.8
99114.6
99114.4
99114.2
99114
99113.9
99113.7
99113.6
99113.5
99113.4
99113.3
99113.3
99113.2
99113.2
99113.1
99113.1
99113.1
99113.1
99113
99113
99113
99113
99113
99113
99113
99113
99113.1
99113.1
99113.1
99113.1
99113.1
99113.1
99113.2
99113.2
99113.2
99113.2
99113.2
99113.3
99113.3
99113.3
99113.3
99113.3
99113.3