/*--------------------------------*- C++ -*----------------------------------*\
| =========                 |                                                 |
| \\      /  F ield         | foam-extend: Open Source CFD                    |
|  \\    /   O peration     | Version:     4.0                                |
|   \\  /    A nd           | Web:         http://www.foam-extend.org         |
|    \\/     M anipulation  |                                                 |
\*---------------------------------------------------------------------------*/
FoamFile
{
    version     2.0;
    format      ascii;
    class       volScalarField;
    location    "0.0017";
    object      pd;
}
// * * * * * * * * * * * * * * * * * * * * * * * * * * * * * * * * * * * * * //

dimensions      [1 -1 -2 0 0 0 0];

internalField   nonuniform List<scalar> 
28770
(
2.99823e+07
2.9947e+07
2.99116e+07
2.98763e+07
2.9841e+07
2.98057e+07
2.97704e+07
2.97352e+07
2.97e+07
2.96648e+07
2.96297e+07
2.95947e+07
2.95597e+07
2.95248e+07
2.94899e+07
2.94552e+07
2.94206e+07
2.93861e+07
2.93518e+07
2.93176e+07
2.92836e+07
2.92498e+07
2.92162e+07
2.91829e+07
2.91499e+07
2.91173e+07
2.90849e+07
2.90531e+07
2.90216e+07
2.89908e+07
2.89604e+07
2.89308e+07
2.89018e+07
2.88737e+07
2.88464e+07
2.88202e+07
2.87948e+07
2.87708e+07
2.8748e+07
2.87266e+07
2.87066e+07
2.86883e+07
2.86716e+07
2.86568e+07
2.86438e+07
2.86329e+07
2.86241e+07
2.86174e+07
2.86129e+07
2.86106e+07
2.99823e+07
2.9947e+07
2.99116e+07
2.98763e+07
2.9841e+07
2.98057e+07
2.97704e+07
2.97352e+07
2.97e+07
2.96648e+07
2.96297e+07
2.95946e+07
2.95596e+07
2.95247e+07
2.94899e+07
2.94551e+07
2.94205e+07
2.9386e+07
2.93516e+07
2.93174e+07
2.92834e+07
2.92496e+07
2.9216e+07
2.91826e+07
2.91496e+07
2.91169e+07
2.90845e+07
2.90526e+07
2.90211e+07
2.89902e+07
2.89598e+07
2.89301e+07
2.8901e+07
2.88729e+07
2.88454e+07
2.88191e+07
2.87937e+07
2.87696e+07
2.87466e+07
2.87252e+07
2.8705e+07
2.86867e+07
2.86698e+07
2.8655e+07
2.86419e+07
2.86309e+07
2.8622e+07
2.86153e+07
2.86107e+07
2.86084e+07
2.99823e+07
2.9947e+07
2.99116e+07
2.98763e+07
2.98409e+07
2.98056e+07
2.97704e+07
2.97351e+07
2.96999e+07
2.96647e+07
2.96296e+07
2.95945e+07
2.95595e+07
2.95245e+07
2.94897e+07
2.94549e+07
2.94202e+07
2.93857e+07
2.93513e+07
2.93171e+07
2.9283e+07
2.92491e+07
2.92155e+07
2.91821e+07
2.9149e+07
2.91162e+07
2.90837e+07
2.90517e+07
2.90201e+07
2.89891e+07
2.89586e+07
2.89287e+07
2.88995e+07
2.88712e+07
2.88436e+07
2.88171e+07
2.87915e+07
2.87672e+07
2.8744e+07
2.87224e+07
2.8702e+07
2.86834e+07
2.86664e+07
2.86514e+07
2.86381e+07
2.8627e+07
2.86179e+07
2.86111e+07
2.86065e+07
2.86042e+07
2.99823e+07
2.99469e+07
2.99116e+07
2.98762e+07
2.98409e+07
2.98056e+07
2.97703e+07
2.9735e+07
2.96998e+07
2.96646e+07
2.96294e+07
2.95943e+07
2.95593e+07
2.95243e+07
2.94894e+07
2.94546e+07
2.94199e+07
2.93853e+07
2.93508e+07
2.93165e+07
2.92824e+07
2.92485e+07
2.92147e+07
2.91812e+07
2.9148e+07
2.91151e+07
2.90825e+07
2.90504e+07
2.90186e+07
2.89874e+07
2.89567e+07
2.89267e+07
2.88972e+07
2.88687e+07
2.88408e+07
2.8814e+07
2.87881e+07
2.87635e+07
2.874e+07
2.8718e+07
2.86973e+07
2.86785e+07
2.86611e+07
2.86458e+07
2.86322e+07
2.86209e+07
2.86116e+07
2.86046e+07
2.85999e+07
2.85975e+07
2.99823e+07
2.99469e+07
2.99115e+07
2.98762e+07
2.98408e+07
2.98055e+07
2.97702e+07
2.97349e+07
2.96996e+07
2.96644e+07
2.96292e+07
2.95941e+07
2.9559e+07
2.9524e+07
2.9489e+07
2.94542e+07
2.94194e+07
2.93848e+07
2.93502e+07
2.93159e+07
2.92816e+07
2.92476e+07
2.92137e+07
2.91801e+07
2.91468e+07
2.91137e+07
2.9081e+07
2.90487e+07
2.90167e+07
2.89853e+07
2.89543e+07
2.8924e+07
2.88942e+07
2.88654e+07
2.88371e+07
2.881e+07
2.87837e+07
2.87588e+07
2.87348e+07
2.87124e+07
2.86913e+07
2.8672e+07
2.86543e+07
2.86385e+07
2.86246e+07
2.8613e+07
2.86034e+07
2.85962e+07
2.85913e+07
2.85889e+07
2.99823e+07
2.99469e+07
2.99115e+07
2.98761e+07
2.98407e+07
2.98054e+07
2.977e+07
2.97347e+07
2.96994e+07
2.96641e+07
2.96289e+07
2.95938e+07
2.95586e+07
2.95236e+07
2.94886e+07
2.94537e+07
2.94188e+07
2.93841e+07
2.93495e+07
2.9315e+07
2.92807e+07
2.92465e+07
2.92125e+07
2.91788e+07
2.91452e+07
2.9112e+07
2.9079e+07
2.90465e+07
2.90142e+07
2.89826e+07
2.89512e+07
2.89206e+07
2.88904e+07
2.88612e+07
2.88325e+07
2.8805e+07
2.87781e+07
2.87527e+07
2.87281e+07
2.87052e+07
2.86835e+07
2.86637e+07
2.86453e+07
2.86291e+07
2.86147e+07
2.86026e+07
2.85926e+07
2.85852e+07
2.85801e+07
2.85776e+07
2.99823e+07
2.99469e+07
2.99114e+07
2.9876e+07
2.98406e+07
2.98052e+07
2.97699e+07
2.97345e+07
2.96992e+07
2.96639e+07
2.96286e+07
2.95934e+07
2.95582e+07
2.95231e+07
2.94881e+07
2.94531e+07
2.94182e+07
2.93833e+07
2.93486e+07
2.9314e+07
2.92796e+07
2.92453e+07
2.92111e+07
2.91772e+07
2.91434e+07
2.911e+07
2.90768e+07
2.9044e+07
2.90114e+07
2.89794e+07
2.89477e+07
2.89167e+07
2.88861e+07
2.88564e+07
2.88272e+07
2.87991e+07
2.87717e+07
2.87456e+07
2.87204e+07
2.86969e+07
2.86745e+07
2.8654e+07
2.86349e+07
2.86181e+07
2.86031e+07
2.85905e+07
2.85801e+07
2.85723e+07
2.8567e+07
2.85643e+07
2.99823e+07
2.99468e+07
2.99114e+07
2.98759e+07
2.98405e+07
2.98051e+07
2.97697e+07
2.97343e+07
2.96989e+07
2.96636e+07
2.96283e+07
2.9593e+07
2.95578e+07
2.95226e+07
2.94875e+07
2.94524e+07
2.94174e+07
2.93825e+07
2.93476e+07
2.93129e+07
2.92783e+07
2.92438e+07
2.92095e+07
2.91754e+07
2.91414e+07
2.91077e+07
2.90742e+07
2.90411e+07
2.90081e+07
2.89758e+07
2.89436e+07
2.89122e+07
2.88809e+07
2.88508e+07
2.88208e+07
2.87922e+07
2.87639e+07
2.87372e+07
2.8711e+07
2.86868e+07
2.86634e+07
2.86422e+07
2.86222e+07
2.86046e+07
2.85888e+07
2.85756e+07
2.85646e+07
2.85563e+07
2.85507e+07
2.85479e+07
2.99823e+07
2.99468e+07
2.99113e+07
2.98758e+07
2.98404e+07
2.98049e+07
2.97695e+07
2.97341e+07
2.96986e+07
2.96633e+07
2.96279e+07
2.95926e+07
2.95573e+07
2.9522e+07
2.94868e+07
2.94517e+07
2.94166e+07
2.93815e+07
2.93466e+07
2.93117e+07
2.92769e+07
2.92423e+07
2.92077e+07
2.91734e+07
2.91392e+07
2.91052e+07
2.90714e+07
2.90379e+07
2.90046e+07
2.89718e+07
2.89391e+07
2.89071e+07
2.88754e+07
2.88445e+07
2.88139e+07
2.87845e+07
2.87555e+07
2.87279e+07
2.87009e+07
2.86757e+07
2.86514e+07
2.86292e+07
2.86083e+07
2.85897e+07
2.85731e+07
2.8559e+07
2.85474e+07
2.85386e+07
2.85325e+07
2.85295e+07
2.99822e+07
2.99467e+07
2.99112e+07
2.98757e+07
2.98402e+07
2.98047e+07
2.97693e+07
2.97338e+07
2.96983e+07
2.96629e+07
2.96275e+07
2.95921e+07
2.95567e+07
2.95214e+07
2.94861e+07
2.94509e+07
2.94156e+07
2.93805e+07
2.93454e+07
2.93104e+07
2.92754e+07
2.92406e+07
2.92058e+07
2.91712e+07
2.91367e+07
2.91024e+07
2.90682e+07
2.90344e+07
2.90006e+07
2.89673e+07
2.89341e+07
2.89016e+07
2.8869e+07
2.88376e+07
2.8806e+07
2.87759e+07
2.87457e+07
2.87173e+07
2.8689e+07
2.86629e+07
2.86372e+07
2.86139e+07
2.85916e+07
2.8572e+07
2.85541e+07
2.85391e+07
2.85266e+07
2.85171e+07
2.85106e+07
2.85074e+07
2.99822e+07
2.99467e+07
2.99111e+07
2.98756e+07
2.98401e+07
2.98046e+07
2.9769e+07
2.97335e+07
2.9698e+07
2.96625e+07
2.96271e+07
2.95916e+07
2.95562e+07
2.95208e+07
2.94854e+07
2.945e+07
2.94147e+07
2.93794e+07
2.93442e+07
2.9309e+07
2.92738e+07
2.92388e+07
2.92038e+07
2.9169e+07
2.91341e+07
2.90995e+07
2.9065e+07
2.90307e+07
2.89964e+07
2.89627e+07
2.89288e+07
2.88957e+07
2.88625e+07
2.88302e+07
2.87978e+07
2.87667e+07
2.87356e+07
2.8706e+07
2.86766e+07
2.86492e+07
2.86223e+07
2.85976e+07
2.85741e+07
2.85531e+07
2.8534e+07
2.85178e+07
2.85042e+07
2.84939e+07
2.84868e+07
2.84833e+07
2.99822e+07
2.99466e+07
2.99111e+07
2.98755e+07
2.98399e+07
2.98044e+07
2.97688e+07
2.97332e+07
2.96977e+07
2.96622e+07
2.96266e+07
2.95911e+07
2.95556e+07
2.95201e+07
2.94846e+07
2.94491e+07
2.94137e+07
2.93783e+07
2.93429e+07
2.93075e+07
2.92722e+07
2.92369e+07
2.92017e+07
2.91666e+07
2.91314e+07
2.90965e+07
2.90615e+07
2.90268e+07
2.8992e+07
2.89577e+07
2.89231e+07
2.88894e+07
2.88552e+07
2.88222e+07
2.87886e+07
2.87567e+07
2.8724e+07
2.86936e+07
2.86623e+07
2.86337e+07
2.86048e+07
2.85787e+07
2.85533e+07
2.85307e+07
2.85099e+07
2.84923e+07
2.84774e+07
2.84661e+07
2.84583e+07
2.84544e+07
2.99822e+07
2.99466e+07
2.9911e+07
2.98754e+07
2.98398e+07
2.98042e+07
2.97686e+07
2.9733e+07
2.96974e+07
2.96618e+07
2.96262e+07
2.95906e+07
2.9555e+07
2.95194e+07
2.94838e+07
2.94482e+07
2.94127e+07
2.93771e+07
2.93416e+07
2.9306e+07
2.92705e+07
2.9235e+07
2.91995e+07
2.91641e+07
2.91286e+07
2.90933e+07
2.90579e+07
2.90228e+07
2.89874e+07
2.89525e+07
2.89174e+07
2.88828e+07
2.88479e+07
2.88139e+07
2.87794e+07
2.87462e+07
2.87125e+07
2.86805e+07
2.86479e+07
2.86176e+07
2.85872e+07
2.85592e+07
2.85321e+07
2.85076e+07
2.84851e+07
2.84656e+07
2.84492e+07
2.84366e+07
2.84278e+07
2.84234e+07
2.99822e+07
2.99465e+07
2.99109e+07
2.98753e+07
2.98396e+07
2.9804e+07
2.97683e+07
2.97327e+07
2.9697e+07
2.96614e+07
2.96257e+07
2.959e+07
2.95544e+07
2.95187e+07
2.9483e+07
2.94473e+07
2.94116e+07
2.93759e+07
2.93402e+07
2.93045e+07
2.92688e+07
2.92331e+07
2.91973e+07
2.91616e+07
2.91258e+07
2.90901e+07
2.90542e+07
2.90186e+07
2.89827e+07
2.89472e+07
2.89113e+07
2.88761e+07
2.884e+07
2.88053e+07
2.87693e+07
2.87352e+07
2.86995e+07
2.86666e+07
2.86314e+07
2.86001e+07
2.85668e+07
2.85367e+07
2.85071e+07
2.84802e+07
2.84553e+07
2.84337e+07
2.84154e+07
2.84012e+07
2.83914e+07
2.83865e+07
2.99822e+07
2.99465e+07
2.99108e+07
2.98751e+07
2.98395e+07
2.98038e+07
2.97681e+07
2.97324e+07
2.96967e+07
2.9661e+07
2.96253e+07
2.95895e+07
2.95538e+07
2.9518e+07
2.94822e+07
2.94464e+07
2.94106e+07
2.93748e+07
2.93389e+07
2.9303e+07
2.92671e+07
2.92311e+07
2.91951e+07
2.91591e+07
2.9123e+07
2.90869e+07
2.90506e+07
2.90145e+07
2.8978e+07
2.89419e+07
2.89053e+07
2.88692e+07
2.88324e+07
2.87965e+07
2.87595e+07
2.87239e+07
2.8687e+07
2.86521e+07
2.86156e+07
2.85818e+07
2.85468e+07
2.85143e+07
2.84824e+07
2.84528e+07
2.84254e+07
2.84011e+07
2.83804e+07
2.8364e+07
2.83527e+07
2.83469e+07
2.99821e+07
2.99464e+07
2.99107e+07
2.9875e+07
2.98393e+07
2.98036e+07
2.97679e+07
2.97321e+07
2.96964e+07
2.96606e+07
2.96248e+07
2.9589e+07
2.95532e+07
2.95173e+07
2.94815e+07
2.94456e+07
2.94096e+07
2.93737e+07
2.93376e+07
2.93016e+07
2.92654e+07
2.92292e+07
2.91929e+07
2.91566e+07
2.91201e+07
2.90837e+07
2.9047e+07
2.90104e+07
2.89733e+07
2.89366e+07
2.88992e+07
2.88624e+07
2.88244e+07
2.87876e+07
2.87491e+07
2.87125e+07
2.86733e+07
2.86375e+07
2.85973e+07
2.85634e+07
2.85243e+07
2.85038e+07
2.8469e+07
2.84361e+07
2.84053e+07
2.83776e+07
2.83537e+07
2.83343e+07
2.83203e+07
2.83122e+07
2.99821e+07
2.99464e+07
2.99107e+07
2.98749e+07
2.98392e+07
2.98034e+07
2.97676e+07
2.97318e+07
2.9696e+07
2.96602e+07
2.96244e+07
2.95885e+07
2.95526e+07
2.95167e+07
2.94807e+07
2.94447e+07
2.94087e+07
2.93726e+07
2.93364e+07
2.93001e+07
2.92638e+07
2.92274e+07
2.91909e+07
2.91543e+07
2.91175e+07
2.90807e+07
2.90435e+07
2.90064e+07
2.89688e+07
2.89315e+07
2.88933e+07
2.88556e+07
2.88168e+07
2.87788e+07
2.87392e+07
2.8701e+07
2.86605e+07
2.86223e+07
2.85806e+07
2.85434e+07
2.85033e+07
2.84789e+07
2.84408e+07
2.84042e+07
2.83696e+07
2.83379e+07
2.83102e+07
2.82875e+07
2.82709e+07
2.82612e+07
2.99821e+07
2.99464e+07
2.99106e+07
2.98748e+07
2.9839e+07
2.98032e+07
2.97674e+07
2.97316e+07
2.96958e+07
2.96599e+07
2.9624e+07
2.95881e+07
2.95521e+07
2.95161e+07
2.948e+07
2.94439e+07
2.94078e+07
2.93715e+07
2.93352e+07
2.92988e+07
2.92623e+07
2.92257e+07
2.91889e+07
2.9152e+07
2.91149e+07
2.90777e+07
2.90401e+07
2.90026e+07
2.89645e+07
2.89265e+07
2.88876e+07
2.88492e+07
2.88093e+07
2.87703e+07
2.87292e+07
2.86898e+07
2.86472e+07
2.86074e+07
2.8563e+07
2.85235e+07
2.84819e+07
2.84532e+07
2.84113e+07
2.83704e+07
2.83311e+07
2.82944e+07
2.8262e+07
2.82349e+07
2.82147e+07
2.82029e+07
2.99821e+07
2.99463e+07
2.99105e+07
2.98747e+07
2.98389e+07
2.98031e+07
2.97672e+07
2.97314e+07
2.96955e+07
2.96596e+07
2.96236e+07
2.95876e+07
2.95516e+07
2.95155e+07
2.94794e+07
2.94432e+07
2.94069e+07
2.93706e+07
2.93341e+07
2.92976e+07
2.92609e+07
2.92241e+07
2.91871e+07
2.91499e+07
2.91125e+07
2.9075e+07
2.90371e+07
2.89991e+07
2.89604e+07
2.89219e+07
2.88823e+07
2.8843e+07
2.88024e+07
2.87622e+07
2.87201e+07
2.86789e+07
2.8635e+07
2.85928e+07
2.85465e+07
2.85035e+07
2.84605e+07
2.84272e+07
2.83811e+07
2.83353e+07
2.82904e+07
2.82406e+07
2.82006e+07
2.81665e+07
2.81406e+07
2.81257e+07
2.99821e+07
2.99463e+07
2.99105e+07
2.98746e+07
2.98388e+07
2.98029e+07
2.97671e+07
2.97312e+07
2.96952e+07
2.96593e+07
2.96233e+07
2.95873e+07
2.95512e+07
2.9515e+07
2.94788e+07
2.94425e+07
2.94062e+07
2.93697e+07
2.93331e+07
2.92964e+07
2.92596e+07
2.92226e+07
2.91854e+07
2.9148e+07
2.91103e+07
2.90725e+07
2.90342e+07
2.89958e+07
2.89567e+07
2.89176e+07
2.88774e+07
2.88374e+07
2.87958e+07
2.87547e+07
2.87113e+07
2.86688e+07
2.86231e+07
2.8579e+07
2.85304e+07
2.84844e+07
2.84397e+07
2.84016e+07
2.83508e+07
2.82994e+07
2.8248e+07
2.81894e+07
2.81401e+07
2.80968e+07
2.80634e+07
2.8044e+07
2.99821e+07
2.99462e+07
2.99104e+07
2.98745e+07
2.98387e+07
2.98028e+07
2.97669e+07
2.9731e+07
2.9695e+07
2.9659e+07
2.9623e+07
2.95869e+07
2.95508e+07
2.95146e+07
2.94783e+07
2.9442e+07
2.94055e+07
2.9369e+07
2.93323e+07
2.92955e+07
2.92585e+07
2.92213e+07
2.91839e+07
2.91464e+07
2.91084e+07
2.90704e+07
2.90317e+07
2.8993e+07
2.89535e+07
2.89138e+07
2.88731e+07
2.88324e+07
2.87901e+07
2.87479e+07
2.87036e+07
2.86596e+07
2.86126e+07
2.85663e+07
2.85158e+07
2.84666e+07
2.84202e+07
2.8377e+07
2.83213e+07
2.82637e+07
2.82047e+07
2.81351e+07
2.80741e+07
2.80182e+07
2.7973e+07
2.79457e+07
2.99821e+07
2.99462e+07
2.99104e+07
2.98745e+07
2.98386e+07
2.98027e+07
2.97668e+07
2.97308e+07
2.96948e+07
2.96588e+07
2.96227e+07
2.95866e+07
2.95505e+07
2.95142e+07
2.94779e+07
2.94415e+07
2.94049e+07
2.93683e+07
2.93315e+07
2.92946e+07
2.92575e+07
2.92202e+07
2.91827e+07
2.9145e+07
2.91068e+07
2.90685e+07
2.90296e+07
2.89905e+07
2.89506e+07
2.89106e+07
2.88694e+07
2.88281e+07
2.8785e+07
2.87421e+07
2.86968e+07
2.86517e+07
2.86032e+07
2.85552e+07
2.85028e+07
2.84507e+07
2.84029e+07
2.83543e+07
2.82935e+07
2.82295e+07
2.81621e+07
2.80795e+07
2.80039e+07
2.793e+07
2.78652e+07
2.78236e+07
2.99821e+07
2.99462e+07
2.99103e+07
2.98744e+07
2.98385e+07
2.98026e+07
2.97667e+07
2.97307e+07
2.96947e+07
2.96586e+07
2.96226e+07
2.95864e+07
2.95502e+07
2.95139e+07
2.94775e+07
2.94411e+07
2.94045e+07
2.93678e+07
2.9331e+07
2.9294e+07
2.92568e+07
2.92194e+07
2.91817e+07
2.91438e+07
2.91055e+07
2.9067e+07
2.90279e+07
2.89886e+07
2.89484e+07
2.8908e+07
2.88664e+07
2.88246e+07
2.87811e+07
2.87374e+07
2.86914e+07
2.86452e+07
2.85957e+07
2.8546e+07
2.8492e+07
2.84374e+07
2.83886e+07
2.83345e+07
2.8269e+07
2.81986e+07
2.81225e+07
2.80259e+07
2.79326e+07
2.78344e+07
2.774e+07
2.76587e+07
2.99821e+07
2.99462e+07
2.99103e+07
2.98744e+07
2.98385e+07
2.98026e+07
2.97666e+07
2.97306e+07
2.96946e+07
2.96585e+07
2.96224e+07
2.95862e+07
2.955e+07
2.95137e+07
2.94773e+07
2.94408e+07
2.94042e+07
2.93674e+07
2.93305e+07
2.92935e+07
2.92562e+07
2.92188e+07
2.9181e+07
2.9143e+07
2.91046e+07
2.9066e+07
2.90267e+07
2.89872e+07
2.89468e+07
2.89061e+07
2.88642e+07
2.8822e+07
2.87781e+07
2.87339e+07
2.86873e+07
2.86403e+07
2.859e+07
2.85392e+07
2.84839e+07
2.84273e+07
2.83781e+07
2.83188e+07
2.82492e+07
2.81731e+07
2.80889e+07
2.7979e+07
2.7867e+07
2.77385e+07
2.75901e+07
2.74418e+07
2.99821e+07
2.99462e+07
2.99103e+07
2.98744e+07
2.98385e+07
2.98025e+07
2.97666e+07
2.97306e+07
2.96945e+07
2.96584e+07
2.96223e+07
2.95861e+07
2.95499e+07
2.95136e+07
2.94771e+07
2.94406e+07
2.9404e+07
2.93672e+07
2.93303e+07
2.92932e+07
2.92559e+07
2.92184e+07
2.91805e+07
2.91425e+07
2.9104e+07
2.90653e+07
2.90259e+07
2.89863e+07
2.89458e+07
2.89049e+07
2.88629e+07
2.88204e+07
2.87763e+07
2.87317e+07
2.86848e+07
2.86373e+07
2.85865e+07
2.85348e+07
2.84788e+07
2.84209e+07
2.83719e+07
2.83081e+07
2.82355e+07
2.81552e+07
2.80649e+07
2.79449e+07
2.78172e+07
2.76605e+07
2.74655e+07
2.71783e+07
2.99821e+07
2.99462e+07
2.99103e+07
2.98744e+07
2.98384e+07
2.98025e+07
2.97665e+07
2.97305e+07
2.96945e+07
2.96584e+07
2.96223e+07
2.95861e+07
2.95498e+07
2.95135e+07
2.94771e+07
2.94406e+07
2.94039e+07
2.93671e+07
2.93302e+07
2.92931e+07
2.92557e+07
2.92182e+07
2.91804e+07
2.91423e+07
2.91038e+07
2.90651e+07
2.90256e+07
2.8986e+07
2.89454e+07
2.89045e+07
2.88624e+07
2.88199e+07
2.87756e+07
2.8731e+07
2.86839e+07
2.86362e+07
2.85852e+07
2.85333e+07
2.8477e+07
2.84187e+07
2.83707e+07
2.83033e+07
2.82293e+07
2.8147e+07
2.80537e+07
2.79297e+07
2.77952e+07
2.76251e+07
2.74095e+07
2.70801e+07
2.99821e+07
2.99462e+07
2.99103e+07
2.98744e+07
2.98385e+07
2.98025e+07
2.97666e+07
2.97306e+07
2.96945e+07
2.96584e+07
2.96223e+07
2.95861e+07
2.95499e+07
2.95136e+07
2.94771e+07
2.94406e+07
2.9404e+07
2.93672e+07
2.93303e+07
2.92932e+07
2.92559e+07
2.92184e+07
2.91805e+07
2.91425e+07
2.9104e+07
2.90653e+07
2.90259e+07
2.89863e+07
2.89458e+07
2.89049e+07
2.88629e+07
2.88204e+07
2.87763e+07
2.87317e+07
2.86848e+07
2.86373e+07
2.85865e+07
2.85348e+07
2.84788e+07
2.84209e+07
2.83746e+07
2.83048e+07
2.82314e+07
2.81498e+07
2.80575e+07
2.79371e+07
2.78077e+07
2.76465e+07
2.74507e+07
2.71443e+07
2.99821e+07
2.99462e+07
2.99103e+07
2.98744e+07
2.98385e+07
2.98026e+07
2.97666e+07
2.97306e+07
2.96946e+07
2.96585e+07
2.96224e+07
2.95862e+07
2.955e+07
2.95137e+07
2.94773e+07
2.94408e+07
2.94042e+07
2.93674e+07
2.93305e+07
2.92935e+07
2.92562e+07
2.92188e+07
2.9181e+07
2.9143e+07
2.91046e+07
2.9066e+07
2.90267e+07
2.89872e+07
2.89468e+07
2.89061e+07
2.88642e+07
2.8822e+07
2.87781e+07
2.87339e+07
2.86873e+07
2.86403e+07
2.859e+07
2.85392e+07
2.84839e+07
2.84273e+07
2.83832e+07
2.83127e+07
2.82415e+07
2.81631e+07
2.80755e+07
2.79654e+07
2.78508e+07
2.7716e+07
2.75721e+07
2.73925e+07
2.99821e+07
2.99462e+07
2.99103e+07
2.98744e+07
2.98385e+07
2.98026e+07
2.97667e+07
2.97307e+07
2.96947e+07
2.96586e+07
2.96226e+07
2.95864e+07
2.95502e+07
2.95139e+07
2.94775e+07
2.94411e+07
2.94045e+07
2.93678e+07
2.9331e+07
2.9294e+07
2.92568e+07
2.92194e+07
2.91817e+07
2.91438e+07
2.91055e+07
2.9067e+07
2.90279e+07
2.89886e+07
2.89484e+07
2.8908e+07
2.88664e+07
2.88246e+07
2.87811e+07
2.87374e+07
2.86914e+07
2.86452e+07
2.85957e+07
2.8546e+07
2.8492e+07
2.84374e+07
2.83959e+07
2.83259e+07
2.82584e+07
2.8185e+07
2.81047e+07
2.80083e+07
2.79129e+07
2.78094e+07
2.77167e+07
2.76315e+07
2.99821e+07
2.99462e+07
2.99104e+07
2.98745e+07
2.98386e+07
2.98027e+07
2.97668e+07
2.97308e+07
2.96948e+07
2.96588e+07
2.96227e+07
2.95866e+07
2.95505e+07
2.95142e+07
2.94779e+07
2.94415e+07
2.94049e+07
2.93683e+07
2.93315e+07
2.92946e+07
2.92575e+07
2.92202e+07
2.91827e+07
2.9145e+07
2.91068e+07
2.90685e+07
2.90296e+07
2.89905e+07
2.89506e+07
2.89106e+07
2.88694e+07
2.88281e+07
2.8785e+07
2.87421e+07
2.86968e+07
2.86517e+07
2.86032e+07
2.85552e+07
2.85028e+07
2.84507e+07
2.8412e+07
2.83437e+07
2.82807e+07
2.82135e+07
2.81417e+07
2.80599e+07
2.79831e+07
2.79063e+07
2.78372e+07
2.77904e+07
2.99821e+07
2.99462e+07
2.99104e+07
2.98745e+07
2.98387e+07
2.98028e+07
2.97669e+07
2.9731e+07
2.9695e+07
2.9659e+07
2.9623e+07
2.95869e+07
2.95508e+07
2.95146e+07
2.94783e+07
2.9442e+07
2.94055e+07
2.9369e+07
2.93323e+07
2.92955e+07
2.92585e+07
2.92213e+07
2.91839e+07
2.91464e+07
2.91084e+07
2.90704e+07
2.90317e+07
2.8993e+07
2.89535e+07
2.89138e+07
2.88731e+07
2.88324e+07
2.87901e+07
2.87479e+07
2.87036e+07
2.86596e+07
2.86126e+07
2.85663e+07
2.85158e+07
2.84666e+07
2.84308e+07
2.83649e+07
2.83069e+07
2.82463e+07
2.81832e+07
2.8115e+07
2.80536e+07
2.7996e+07
2.79481e+07
2.79185e+07
2.99821e+07
2.99463e+07
2.99105e+07
2.98746e+07
2.98388e+07
2.98029e+07
2.97671e+07
2.97312e+07
2.96952e+07
2.96593e+07
2.96233e+07
2.95873e+07
2.95512e+07
2.9515e+07
2.94788e+07
2.94425e+07
2.94062e+07
2.93697e+07
2.93331e+07
2.92964e+07
2.92596e+07
2.92226e+07
2.91854e+07
2.9148e+07
2.91103e+07
2.90725e+07
2.90342e+07
2.89958e+07
2.89567e+07
2.89176e+07
2.88774e+07
2.88374e+07
2.87958e+07
2.87547e+07
2.87113e+07
2.86688e+07
2.86231e+07
2.8579e+07
2.85304e+07
2.84844e+07
2.84514e+07
2.83884e+07
2.83355e+07
2.82813e+07
2.82263e+07
2.81698e+07
2.81205e+07
2.80763e+07
2.80416e+07
2.80211e+07
2.99821e+07
2.99463e+07
2.99105e+07
2.98747e+07
2.98389e+07
2.98031e+07
2.97672e+07
2.97314e+07
2.96955e+07
2.96596e+07
2.96236e+07
2.95876e+07
2.95516e+07
2.95155e+07
2.94794e+07
2.94432e+07
2.94069e+07
2.93706e+07
2.93341e+07
2.92976e+07
2.92609e+07
2.92241e+07
2.91871e+07
2.91499e+07
2.91125e+07
2.9075e+07
2.90371e+07
2.89991e+07
2.89604e+07
2.89219e+07
2.88823e+07
2.8843e+07
2.88024e+07
2.87622e+07
2.87201e+07
2.86789e+07
2.8635e+07
2.85928e+07
2.85465e+07
2.85035e+07
2.84732e+07
2.84132e+07
2.83652e+07
2.8317e+07
2.82692e+07
2.82224e+07
2.81821e+07
2.81475e+07
2.81211e+07
2.8106e+07
2.99821e+07
2.99464e+07
2.99106e+07
2.98748e+07
2.9839e+07
2.98032e+07
2.97674e+07
2.97316e+07
2.96958e+07
2.96599e+07
2.9624e+07
2.95881e+07
2.95521e+07
2.95161e+07
2.948e+07
2.94439e+07
2.94078e+07
2.93715e+07
2.93352e+07
2.92988e+07
2.92623e+07
2.92257e+07
2.91889e+07
2.9152e+07
2.91149e+07
2.90777e+07
2.90401e+07
2.90026e+07
2.89645e+07
2.89265e+07
2.88876e+07
2.88492e+07
2.88093e+07
2.87703e+07
2.87292e+07
2.86898e+07
2.86472e+07
2.86074e+07
2.8563e+07
2.85235e+07
2.84955e+07
2.84384e+07
2.8395e+07
2.83523e+07
2.83111e+07
2.8273e+07
2.82374e+07
2.82071e+07
2.81843e+07
2.81709e+07
2.99821e+07
2.99464e+07
2.99107e+07
2.98749e+07
2.98392e+07
2.98034e+07
2.97676e+07
2.97318e+07
2.9696e+07
2.96602e+07
2.96244e+07
2.95885e+07
2.95526e+07
2.95167e+07
2.94807e+07
2.94447e+07
2.94087e+07
2.93726e+07
2.93364e+07
2.93001e+07
2.92638e+07
2.92274e+07
2.91909e+07
2.91543e+07
2.91175e+07
2.90807e+07
2.90435e+07
2.90064e+07
2.89688e+07
2.89315e+07
2.88933e+07
2.88556e+07
2.88168e+07
2.87788e+07
2.87392e+07
2.8701e+07
2.86605e+07
2.86223e+07
2.85806e+07
2.85434e+07
2.85179e+07
2.84634e+07
2.84241e+07
2.8386e+07
2.83498e+07
2.83166e+07
2.82868e+07
2.82621e+07
2.82439e+07
2.82335e+07
2.99821e+07
2.99464e+07
2.99107e+07
2.9875e+07
2.98393e+07
2.98036e+07
2.97679e+07
2.97321e+07
2.96964e+07
2.96606e+07
2.96248e+07
2.9589e+07
2.95532e+07
2.95173e+07
2.94815e+07
2.94456e+07
2.94096e+07
2.93737e+07
2.93376e+07
2.93016e+07
2.92654e+07
2.92292e+07
2.91929e+07
2.91566e+07
2.91201e+07
2.90837e+07
2.9047e+07
2.90104e+07
2.89733e+07
2.89366e+07
2.88992e+07
2.88624e+07
2.88244e+07
2.87876e+07
2.87491e+07
2.87125e+07
2.86733e+07
2.86375e+07
2.85973e+07
2.85634e+07
2.85398e+07
2.84876e+07
2.84518e+07
2.84177e+07
2.83857e+07
2.83567e+07
2.83314e+07
2.83109e+07
2.8296e+07
2.82878e+07
2.99822e+07
2.99465e+07
2.99108e+07
2.98751e+07
2.98395e+07
2.98038e+07
2.97681e+07
2.97324e+07
2.96967e+07
2.9661e+07
2.96253e+07
2.95895e+07
2.95538e+07
2.9518e+07
2.94822e+07
2.94464e+07
2.94106e+07
2.93748e+07
2.93389e+07
2.9303e+07
2.92671e+07
2.92311e+07
2.91951e+07
2.91591e+07
2.9123e+07
2.90869e+07
2.90506e+07
2.90145e+07
2.8978e+07
2.89419e+07
2.89053e+07
2.88692e+07
2.88324e+07
2.87965e+07
2.87595e+07
2.87239e+07
2.8687e+07
2.86521e+07
2.86156e+07
2.85818e+07
2.85468e+07
2.85143e+07
2.84824e+07
2.84528e+07
2.84254e+07
2.84011e+07
2.83804e+07
2.8364e+07
2.83527e+07
2.83469e+07
2.99822e+07
2.99465e+07
2.99109e+07
2.98753e+07
2.98396e+07
2.9804e+07
2.97683e+07
2.97327e+07
2.9697e+07
2.96614e+07
2.96257e+07
2.959e+07
2.95544e+07
2.95187e+07
2.9483e+07
2.94473e+07
2.94116e+07
2.93759e+07
2.93402e+07
2.93045e+07
2.92688e+07
2.92331e+07
2.91973e+07
2.91616e+07
2.91258e+07
2.90901e+07
2.90542e+07
2.90186e+07
2.89827e+07
2.89472e+07
2.89113e+07
2.88761e+07
2.884e+07
2.88053e+07
2.87693e+07
2.87352e+07
2.86995e+07
2.86666e+07
2.86314e+07
2.86001e+07
2.85668e+07
2.85367e+07
2.85071e+07
2.84802e+07
2.84553e+07
2.84337e+07
2.84154e+07
2.84012e+07
2.83914e+07
2.83865e+07
2.99822e+07
2.99466e+07
2.9911e+07
2.98754e+07
2.98398e+07
2.98042e+07
2.97686e+07
2.9733e+07
2.96974e+07
2.96618e+07
2.96262e+07
2.95906e+07
2.9555e+07
2.95194e+07
2.94838e+07
2.94482e+07
2.94127e+07
2.93771e+07
2.93416e+07
2.9306e+07
2.92705e+07
2.9235e+07
2.91995e+07
2.91641e+07
2.91286e+07
2.90933e+07
2.90579e+07
2.90228e+07
2.89874e+07
2.89525e+07
2.89174e+07
2.88828e+07
2.88479e+07
2.88139e+07
2.87794e+07
2.87462e+07
2.87125e+07
2.86805e+07
2.86479e+07
2.86176e+07
2.85872e+07
2.85592e+07
2.85321e+07
2.85076e+07
2.84851e+07
2.84656e+07
2.84492e+07
2.84366e+07
2.84278e+07
2.84234e+07
2.99822e+07
2.99466e+07
2.99111e+07
2.98755e+07
2.98399e+07
2.98044e+07
2.97688e+07
2.97332e+07
2.96977e+07
2.96622e+07
2.96266e+07
2.95911e+07
2.95556e+07
2.95201e+07
2.94846e+07
2.94491e+07
2.94137e+07
2.93783e+07
2.93429e+07
2.93075e+07
2.92722e+07
2.92369e+07
2.92017e+07
2.91666e+07
2.91314e+07
2.90965e+07
2.90615e+07
2.90268e+07
2.8992e+07
2.89577e+07
2.89231e+07
2.88894e+07
2.88552e+07
2.88222e+07
2.87886e+07
2.87567e+07
2.8724e+07
2.86936e+07
2.86623e+07
2.86337e+07
2.86048e+07
2.85787e+07
2.85533e+07
2.85307e+07
2.85099e+07
2.84923e+07
2.84774e+07
2.84661e+07
2.84583e+07
2.84544e+07
2.99822e+07
2.99467e+07
2.99111e+07
2.98756e+07
2.98401e+07
2.98046e+07
2.9769e+07
2.97335e+07
2.9698e+07
2.96625e+07
2.96271e+07
2.95916e+07
2.95562e+07
2.95208e+07
2.94854e+07
2.945e+07
2.94147e+07
2.93794e+07
2.93442e+07
2.9309e+07
2.92738e+07
2.92388e+07
2.92038e+07
2.9169e+07
2.91341e+07
2.90995e+07
2.9065e+07
2.90307e+07
2.89964e+07
2.89627e+07
2.89288e+07
2.88957e+07
2.88625e+07
2.88302e+07
2.87978e+07
2.87667e+07
2.87356e+07
2.8706e+07
2.86766e+07
2.86492e+07
2.86223e+07
2.85976e+07
2.85741e+07
2.85531e+07
2.8534e+07
2.85178e+07
2.85042e+07
2.84939e+07
2.84868e+07
2.84833e+07
2.99822e+07
2.99467e+07
2.99112e+07
2.98757e+07
2.98402e+07
2.98047e+07
2.97693e+07
2.97338e+07
2.96983e+07
2.96629e+07
2.96275e+07
2.95921e+07
2.95567e+07
2.95214e+07
2.94861e+07
2.94509e+07
2.94156e+07
2.93805e+07
2.93454e+07
2.93104e+07
2.92754e+07
2.92406e+07
2.92058e+07
2.91712e+07
2.91367e+07
2.91024e+07
2.90682e+07
2.90344e+07
2.90006e+07
2.89673e+07
2.89341e+07
2.89016e+07
2.8869e+07
2.88376e+07
2.8806e+07
2.87759e+07
2.87457e+07
2.87173e+07
2.8689e+07
2.86629e+07
2.86372e+07
2.86139e+07
2.85916e+07
2.8572e+07
2.85541e+07
2.85391e+07
2.85266e+07
2.85171e+07
2.85106e+07
2.85074e+07
2.99823e+07
2.99468e+07
2.99113e+07
2.98758e+07
2.98404e+07
2.98049e+07
2.97695e+07
2.97341e+07
2.96986e+07
2.96633e+07
2.96279e+07
2.95926e+07
2.95573e+07
2.9522e+07
2.94868e+07
2.94517e+07
2.94166e+07
2.93815e+07
2.93466e+07
2.93117e+07
2.92769e+07
2.92423e+07
2.92077e+07
2.91734e+07
2.91392e+07
2.91052e+07
2.90714e+07
2.90379e+07
2.90046e+07
2.89718e+07
2.89391e+07
2.89071e+07
2.88754e+07
2.88445e+07
2.88139e+07
2.87845e+07
2.87555e+07
2.87279e+07
2.87009e+07
2.86757e+07
2.86514e+07
2.86292e+07
2.86083e+07
2.85897e+07
2.85731e+07
2.8559e+07
2.85474e+07
2.85386e+07
2.85325e+07
2.85295e+07
2.99823e+07
2.99468e+07
2.99114e+07
2.98759e+07
2.98405e+07
2.98051e+07
2.97697e+07
2.97343e+07
2.96989e+07
2.96636e+07
2.96283e+07
2.9593e+07
2.95578e+07
2.95226e+07
2.94875e+07
2.94524e+07
2.94174e+07
2.93825e+07
2.93476e+07
2.93129e+07
2.92783e+07
2.92438e+07
2.92095e+07
2.91754e+07
2.91414e+07
2.91077e+07
2.90742e+07
2.90411e+07
2.90081e+07
2.89758e+07
2.89436e+07
2.89122e+07
2.88809e+07
2.88508e+07
2.88208e+07
2.87922e+07
2.87639e+07
2.87372e+07
2.8711e+07
2.86868e+07
2.86634e+07
2.86422e+07
2.86222e+07
2.86046e+07
2.85888e+07
2.85756e+07
2.85646e+07
2.85563e+07
2.85507e+07
2.85479e+07
2.99823e+07
2.99469e+07
2.99114e+07
2.9876e+07
2.98406e+07
2.98052e+07
2.97699e+07
2.97345e+07
2.96992e+07
2.96639e+07
2.96286e+07
2.95934e+07
2.95582e+07
2.95231e+07
2.94881e+07
2.94531e+07
2.94182e+07
2.93833e+07
2.93486e+07
2.9314e+07
2.92796e+07
2.92453e+07
2.92111e+07
2.91772e+07
2.91434e+07
2.911e+07
2.90768e+07
2.9044e+07
2.90114e+07
2.89794e+07
2.89477e+07
2.89167e+07
2.88861e+07
2.88564e+07
2.88272e+07
2.87991e+07
2.87717e+07
2.87456e+07
2.87204e+07
2.86969e+07
2.86745e+07
2.8654e+07
2.86349e+07
2.86181e+07
2.86031e+07
2.85905e+07
2.85801e+07
2.85723e+07
2.8567e+07
2.85643e+07
2.99823e+07
2.99469e+07
2.99115e+07
2.98761e+07
2.98407e+07
2.98054e+07
2.977e+07
2.97347e+07
2.96994e+07
2.96641e+07
2.96289e+07
2.95938e+07
2.95586e+07
2.95236e+07
2.94886e+07
2.94537e+07
2.94188e+07
2.93841e+07
2.93495e+07
2.9315e+07
2.92807e+07
2.92465e+07
2.92125e+07
2.91788e+07
2.91452e+07
2.9112e+07
2.9079e+07
2.90465e+07
2.90142e+07
2.89826e+07
2.89512e+07
2.89206e+07
2.88904e+07
2.88612e+07
2.88325e+07
2.8805e+07
2.87781e+07
2.87527e+07
2.87281e+07
2.87052e+07
2.86835e+07
2.86637e+07
2.86453e+07
2.86291e+07
2.86147e+07
2.86026e+07
2.85926e+07
2.85852e+07
2.85801e+07
2.85776e+07
2.99823e+07
2.99469e+07
2.99115e+07
2.98762e+07
2.98408e+07
2.98055e+07
2.97702e+07
2.97349e+07
2.96996e+07
2.96644e+07
2.96292e+07
2.95941e+07
2.9559e+07
2.9524e+07
2.9489e+07
2.94542e+07
2.94194e+07
2.93848e+07
2.93502e+07
2.93159e+07
2.92816e+07
2.92476e+07
2.92137e+07
2.91801e+07
2.91468e+07
2.91137e+07
2.9081e+07
2.90487e+07
2.90167e+07
2.89853e+07
2.89543e+07
2.8924e+07
2.88942e+07
2.88654e+07
2.88371e+07
2.881e+07
2.87837e+07
2.87588e+07
2.87348e+07
2.87124e+07
2.86913e+07
2.8672e+07
2.86543e+07
2.86385e+07
2.86246e+07
2.8613e+07
2.86034e+07
2.85962e+07
2.85913e+07
2.85889e+07
2.99823e+07
2.99469e+07
2.99116e+07
2.98762e+07
2.98409e+07
2.98056e+07
2.97703e+07
2.9735e+07
2.96998e+07
2.96646e+07
2.96294e+07
2.95943e+07
2.95593e+07
2.95243e+07
2.94894e+07
2.94546e+07
2.94199e+07
2.93853e+07
2.93508e+07
2.93165e+07
2.92824e+07
2.92485e+07
2.92147e+07
2.91812e+07
2.9148e+07
2.91151e+07
2.90825e+07
2.90504e+07
2.90186e+07
2.89874e+07
2.89567e+07
2.89267e+07
2.88972e+07
2.88687e+07
2.88408e+07
2.8814e+07
2.87881e+07
2.87635e+07
2.874e+07
2.8718e+07
2.86973e+07
2.86785e+07
2.86611e+07
2.86458e+07
2.86322e+07
2.86209e+07
2.86116e+07
2.86046e+07
2.85999e+07
2.85975e+07
2.99823e+07
2.9947e+07
2.99116e+07
2.98763e+07
2.98409e+07
2.98056e+07
2.97704e+07
2.97351e+07
2.96999e+07
2.96647e+07
2.96296e+07
2.95945e+07
2.95595e+07
2.95245e+07
2.94897e+07
2.94549e+07
2.94202e+07
2.93857e+07
2.93513e+07
2.93171e+07
2.9283e+07
2.92491e+07
2.92155e+07
2.91821e+07
2.9149e+07
2.91162e+07
2.90837e+07
2.90517e+07
2.90201e+07
2.89891e+07
2.89586e+07
2.89287e+07
2.88995e+07
2.88712e+07
2.88436e+07
2.88171e+07
2.87915e+07
2.87672e+07
2.8744e+07
2.87224e+07
2.8702e+07
2.86834e+07
2.86664e+07
2.86514e+07
2.86381e+07
2.8627e+07
2.86179e+07
2.86111e+07
2.86065e+07
2.86042e+07
2.99823e+07