/*--------------------------------*- C++ -*----------------------------------*\
| =========                 |                                                 |
| \\      /  F ield         | foam-extend: Open Source CFD                    |
|  \\    /   O peration     | Version:     4.0                                |
|   \\  /    A nd           | Web:         http://www.foam-extend.org         |
|    \\/     M anipulation  |                                                 |
\*---------------------------------------------------------------------------*/
FoamFile
{
    version     2.0;
    format      ascii;
    class       surfaceScalarField;
    location    "0.0017";
    object      phi;
}
// * * * * * * * * * * * * * * * * * * * * * * * * * * * * * * * * * * * * * //

dimensions      [0 3 -1 0 0 0 0];

internalField   nonuniform List<scalar> 
57362
(
1.05038e-10
6.22115e-15
1.05019e-10
1.88329e-14
1.04988e-10
3.16686e-14
1.04943e-10
4.50087e-14
1.04883e-10
5.90808e-14
1.04809e-10
7.40107e-14
1.04719e-10
9.00488e-14
1.04612e-10
1.07382e-13
1.04486e-10
1.26418e-13
1.04338e-10
1.47417e-13
1.04168e-10
1.70595e-13
1.03971e-10
1.96221e-13
1.03746e-10
2.24854e-13
1.0349e-10
2.56783e-13
1.03197e-10
2.92462e-13
1.02865e-10
3.32356e-13
1.02488e-10
3.77104e-13
1.0206e-10
4.27169e-13
1.01577e-10
4.83246e-13
1.01031e-10
5.45941e-13
1.00415e-10
6.16386e-13
9.972e-11
6.94683e-13
9.89377e-11
7.8265e-13
9.80572e-11
8.80023e-13
9.70684e-11
9.89238e-13
9.59584e-11
1.10929e-12
9.47151e-11
1.24403e-12
9.33234e-11
1.39062e-12
9.17695e-11
1.55502e-12
9.00362e-11
1.73174e-12
8.81081e-11
1.92959e-12
8.59671e-11
2.13901e-12
8.35958e-11
2.37308e-12
8.09771e-11
2.6163e-12
7.80925e-11
2.8867e-12
7.49277e-11
3.162e-12
7.14652e-11
3.46478e-12
6.76956e-11
3.7667e-12
6.36055e-11
4.09229e-12
5.91927e-11
4.40989e-12
5.44525e-11
4.74213e-12
4.9392e-11
5.05785e-12
4.40193e-11
5.37421e-12
3.8353e-11
5.66413e-12
3.24164e-11
5.93758e-12
2.62412e-11
6.17355e-12
1.98655e-11
6.37618e-12
1.33333e-11
6.53114e-12
6.69395e-12
6.6393e-12
6.69339e-12
1.05039e-10
1.2381e-14
1.05021e-10
3.73801e-14
1.0499e-10
6.28551e-14
1.04945e-10
8.93119e-14
1.04887e-10
1.17226e-13
1.04814e-10
1.46889e-13
1.04726e-10
1.78721e-13
1.0462e-10
2.1328e-13
1.04495e-10
2.5108e-13
1.0435e-10
2.92668e-13
1.04182e-10
3.38645e-13
1.03988e-10
3.89637e-13
1.03767e-10
4.46523e-13
1.03514e-10
5.09869e-13
1.03225e-10
5.80749e-13
1.02898e-10
6.60097e-13
1.02526e-10
7.48989e-13
1.02104e-10
8.48457e-13
1.01628e-10
9.60053e-13
1.01089e-10
1.08471e-12
1.00481e-10
1.22476e-12
9.97944e-11
1.38053e-12
9.90218e-11
1.55556e-12
9.81521e-11
1.74934e-12
9.7175e-11
1.96692e-12
9.60776e-11
2.206e-12
9.48481e-11
2.47457e-12
9.34709e-11
2.76678e-12
9.19325e-11
3.09488e-12
9.02155e-11
3.4473e-12
8.83043e-11
3.84294e-12
8.61803e-11
4.26108e-12
8.38263e-11
4.72993e-12
8.12243e-11
5.21607e-12
7.83557e-11
5.75884e-12
7.52053e-11
6.30985e-12
7.17549e-11
6.91933e-12
6.79948e-11
7.52441e-12
6.391e-11
8.18153e-12
5.94984e-11
8.81938e-12
5.47538e-11
9.49116e-12
4.96833e-11
1.0127e-11
4.42941e-11
1.07676e-11
3.86047e-11
1.1353e-11
3.26386e-11
1.19073e-11
2.64275e-11
1.23849e-11
2.00107e-11
1.27961e-11
1.34326e-11
1.31102e-11
6.74448e-12
1.33299e-11
1.34396e-11
1.05074e-10
1.83546e-14
1.05056e-10
5.53371e-14
1.05026e-10
9.3185e-14
1.04983e-10
1.32397e-13
1.04926e-10
1.73659e-13
1.04856e-10
2.17588e-13
1.0477e-10
2.64816e-13
1.04667e-10
3.16043e-13
1.04546e-10
3.721e-13
1.04405e-10
4.3369e-13
1.04242e-10
5.01843e-13
1.04054e-10
5.77498e-13
1.03839e-10
6.61759e-13
1.03593e-10
7.55773e-13
1.03312e-10
8.6095e-13
1.02994e-10
9.78687e-13
1.02632e-10
1.11063e-12
1.02222e-10
1.25827e-12
1.01758e-10
1.42402e-12
1.01234e-10
1.60928e-12
1.00641e-10
1.81728e-12
9.99724e-11
2.04894e-12
9.9219e-11
2.30925e-12
9.83702e-11
2.59756e-12
9.7416e-11
2.92163e-12
9.63432e-11
3.27785e-12
9.51402e-11
3.67821e-12
9.37914e-11
4.1142e-12
9.22831e-11
4.60423e-12
9.05974e-11
5.131e-12
8.87186e-11
5.72296e-12
8.66278e-11
6.34936e-12
8.43067e-11
7.05232e-12
8.17372e-11
7.78244e-12
7.8899e-11
8.59837e-12
7.57765e-11
9.42855e-12
7.23497e-11
1.03472e-11
6.86078e-11
1.1262e-11
6.45343e-11
1.22557e-11
6.01253e-11
1.32239e-11
5.53731e-11
1.42433e-11
5.0283e-11
1.52125e-11
4.48615e-11
1.61884e-11
3.91259e-11
1.70841e-11
3.30999e-11
1.7932e-11
2.68155e-11
1.86653e-11
2.03135e-11
1.92962e-11
1.36404e-11
1.97798e-11
6.85017e-12
2.01176e-11
2.02868e-11
1.0511e-10
2.4067e-14
1.05093e-10
7.25044e-14
1.05064e-10
1.22095e-13
1.05023e-10
1.7351e-13
1.04969e-10
2.27555e-13
1.04901e-10
2.85101e-13
1.04819e-10
3.47001e-13
1.04721e-10
4.14212e-13
1.04606e-10
4.8764e-13
1.04471e-10
5.68449e-13
1.04315e-10
6.5783e-13
1.04135e-10
7.57023e-13
1.03929e-10
8.6761e-13
1.03694e-10
9.91034e-13
1.03426e-10
1.1291e-12
1.03121e-10
1.2836e-12
1.02775e-10
1.45693e-12
1.02382e-10
1.65091e-12
1.01937e-10
1.86887e-12
1.01434e-10
2.11245e-12
1.00865e-10
2.38613e-12
1.00223e-10
2.69114e-12
9.94986e-11
3.03409e-12
9.86815e-11
3.41417e-12
9.77622e-11
3.84177e-12
9.67271e-11
4.31218e-12
9.55651e-11
4.84162e-12
9.42598e-11
5.41832e-12
9.27982e-11
6.06802e-12
9.11611e-11
6.76633e-12
8.93336e-11
7.55373e-12
8.72946e-11
8.3861e-12
8.50263e-11
9.32509e-12
8.2508e-11
1.02979e-11
7.97188e-11
1.13933e-11
7.66415e-11
1.25028e-11
7.32526e-11
1.37431e-11
6.95413e-11
1.49706e-11
6.5485e-11
1.63197e-11
6.10817e-11
1.76253e-11
5.63167e-11
1.90162e-11
5.11968e-11
2.0332e-11
4.57247e-11
2.16681e-11
3.99179e-11
2.2892e-11
3.38001e-11
2.40568e-11
2.74035e-11
2.50642e-11
2.0772e-11
2.59338e-11
1.39545e-11
2.66008e-11
7.01004e-12
2.70674e-11
2.73012e-11
1.05146e-10
2.94445e-14
1.0513e-10
8.8619e-14
1.05103e-10
1.49136e-13
1.05064e-10
2.12011e-13
1.05014e-10
2.78113e-13
1.0495e-10
3.48454e-13
1.04873e-10
4.24117e-13
1.04781e-10
5.06268e-13
1.04673e-10
5.96038e-13
1.04546e-10
6.94951e-13
1.044e-10
8.04276e-13
1.04231e-10
9.25661e-13
1.04038e-10
1.06102e-12
1.03817e-10
1.21214e-12
1.03565e-10
1.38128e-12
1.03278e-10
1.57054e-12
1.02952e-10
1.78296e-12
1.02581e-10
2.02091e-12
1.02162e-10
2.28834e-12
1.01687e-10
2.58732e-12
1.0115e-10
2.92365e-12
1.00542e-10
3.29859e-12
9.98555e-11
3.72059e-12
9.90801e-11
4.18872e-12
9.82067e-11
4.71577e-12
9.72212e-11
5.29636e-12
9.61129e-11
5.95068e-12
9.48652e-11
6.6642e-12
9.34649e-11
7.46941e-12
9.18925e-11
8.33605e-12
9.0132e-11
9.31549e-12
8.81621e-11
1.03524e-11
8.59631e-11
1.15253e-11
8.35139e-11
1.27427e-11
8.07907e-11
1.41175e-11
7.77748e-11
1.55133e-11
7.44397e-11
1.70786e-11
7.07717e-11
1.86323e-11
6.67455e-11
2.03452e-11
6.23543e-11
2.20096e-11
5.75816e-11
2.3787e-11
5.24287e-11
2.54774e-11
4.68968e-11
2.71969e-11
4.10002e-11
2.87812e-11
3.47622e-11
3.02906e-11
2.82161e-11
3.16032e-11
2.14081e-11
3.27368e-11
1.43921e-11
3.36102e-11
7.23293e-12
3.42211e-11
3.45282e-11
1.05214e-10
3.43085e-14
1.05199e-10
1.03392e-13
1.05174e-10
1.74027e-13
1.05139e-10
2.47393e-13
1.05092e-10
3.24553e-13
1.05034e-10
4.06653e-13
1.04963e-10
4.95006e-13
1.04879e-10
5.90874e-13
1.04779e-10
6.95806e-13
1.04663e-10
8.11292e-13
1.04528e-10
9.39062e-13
1.04372e-10
1.081e-12
1.04194e-10
1.23918e-12
1.03991e-10
1.41592e-12
1.03758e-10
1.61383e-12
1.03493e-10
1.83543e-12
1.03192e-10
2.0842e-12
1.0285e-10
2.36307e-12
1.02462e-10
2.67657e-12
1.02021e-10
3.02745e-12
1.01523e-10
3.42248e-12
1.00958e-10
3.86313e-12
1.0032e-10
4.35967e-12
9.95967e-11
4.91097e-12
9.87811e-11
5.53263e-12
9.78583e-11
6.21809e-12
9.68189e-11
6.99216e-12
9.56444e-11
7.83707e-12
9.43236e-11
8.79336e-12
9.28343e-11
9.82302e-12
9.11625e-11
1.09922e-11
8.92827e-11
1.22289e-11
8.71771e-11
1.36378e-11
8.48197e-11
1.50959e-11
8.21859e-11
1.67605e-11
7.92542e-11
1.84403e-11
7.59914e-11
2.03527e-11
7.23858e-11
2.22338e-11
6.83976e-11
2.43461e-11
6.40266e-11
2.63779e-11
5.92399e-11
2.85869e-11
5.40428e-11
3.06746e-11
4.84294e-11
3.2823e-11
4.24123e-11
3.48011e-11
3.60165e-11
3.66981e-11
2.92729e-11
3.83518e-11
2.22353e-11
3.97849e-11
1.49599e-11
4.08922e-11
7.52234e-12
4.16677e-11
4.20584e-11
1.05281e-10
3.86724e-14
1.05268e-10
1.16639e-13
1.05245e-10
1.96372e-13
1.05213e-10
2.79125e-13
1.05172e-10
3.66185e-13
1.0512e-10
4.58841e-13
1.05056e-10
5.58524e-13
1.0498e-10
6.66851e-13
1.04891e-10
7.85357e-13
1.04786e-10
9.15755e-13
1.04665e-10
1.06016e-12
1.04525e-10
1.22063e-12
1.04365e-10
1.3995e-12
1.04182e-10
1.59938e-12
1.03972e-10
1.82334e-12
1.03733e-10
2.07426e-12
1.03461e-10
2.35619e-12
1.03152e-10
2.6723e-12
1.028e-10
3.02798e-12
1.02401e-10
3.42642e-12
1.01949e-10
3.87531e-12
1.01434e-10
4.37671e-12
1.00852e-10
4.94222e-12
1.00191e-10
5.57093e-12
9.94437e-11
6.28088e-12
9.85952e-11
7.0649e-12
9.76365e-11
7.95185e-12
9.65494e-11
8.92173e-12
9.5322e-11
1.00221e-11
9.39322e-11
1.12093e-11
9.23644e-11
1.25615e-11
9.05936e-11
1.39949e-11
8.85982e-11
1.56346e-11
8.63527e-11
1.73352e-11
8.38274e-11
1.92867e-11
8.09996e-11
2.12604e-11
7.78308e-11
2.35213e-11
7.43046e-11
2.5751e-11
7.03779e-11
2.82707e-11
6.60406e-11
3.0705e-11
6.12588e-11
3.33645e-11
5.60253e-11
3.58967e-11
5.03309e-11
3.85109e-11
4.41819e-11
4.09383e-11
3.76005e-11
4.32715e-11
3.06194e-11
4.53213e-11
2.32946e-11
4.71008e-11
1.56915e-11
4.84845e-11
7.89591e-12
4.94539e-11
4.99442e-11
1.05345e-10
4.24862e-14
1.05334e-10
1.28164e-13
1.05314e-10
2.15776e-13
1.05287e-10
3.06725e-13
1.05251e-10
4.02402e-13
1.05205e-10
5.04269e-13
1.0515e-10
6.13857e-13
1.05084e-10
7.32959e-13
1.05006e-10
8.63284e-13
1.04915e-10
1.00681e-12
1.04809e-10
1.16573e-12
1.04687e-10
1.34241e-12
1.04547e-10
1.53946e-12
1.04387e-10
1.75969e-12
1.04204e-10
2.00668e-12
1.03995e-10
2.28349e-12
1.03756e-10
2.59475e-12
1.03484e-10
2.94393e-12
1.03175e-10
3.33722e-12
1.02823e-10
3.77817e-12
1.02424e-10
4.27542e-12
1.01968e-10
4.8316e-12
1.01452e-10
5.45952e-12
1.00863e-10
6.15874e-12
1.00196e-10
6.94953e-12
9.94356e-11
7.82425e-12
9.85742e-11
8.8161e-12
9.75912e-11
9.90246e-12
9.64787e-11
1.11392e-11
9.52092e-11
1.24752e-11
9.3773e-11
1.40048e-11
9.21363e-11
1.56264e-11
9.02843e-11
1.7497e-11
8.81809e-11
1.94318e-11
8.57995e-11
2.16823e-11
8.31103e-11
2.39416e-11
8.00656e-11
2.65838e-11
7.66546e-11
2.91545e-11
7.28041e-11
3.21415e-11
6.85254e-11
3.4979e-11
6.37434e-11
3.81673e-11
5.84639e-11
4.11765e-11
5.26669e-11
4.43278e-11
4.635e-11
4.72604e-11
3.95417e-11
5.00981e-11
3.22646e-11
5.26073e-11
2.45897e-11
5.4792e-11
1.65837e-11
5.65016e-11
8.35192e-12
5.77e-11
5.83089e-11
1.05439e-10
4.56373e-14
1.05429e-10
1.37733e-13
1.05413e-10
2.31933e-13
1.0539e-10
3.29744e-13
1.0536e-10
4.3262e-13
1.05322e-10
5.42179e-13
1.05276e-10
6.60142e-13
1.0522e-10
7.88252e-13
1.05155e-10
9.28485e-13
1.05079e-10
1.083e-12
1.0499e-10
1.25415e-12
1.04888e-10
1.44449e-12
1.04771e-10
1.65692e-12
1.04636e-10
1.89445e-12
1.04482e-10
2.16098e-12
1.04305e-10
2.45988e-12
1.04104e-10
2.79619e-12
1.03874e-10
3.17382e-12
1.03612e-10
3.59952e-12
1.03312e-10
4.07731e-12
1.02971e-10
4.61661e-12
1.02581e-10
5.22067e-12
1.02138e-10
5.90351e-12
1.0163e-10
6.66526e-12
1.01053e-10
7.52809e-12
1.0039e-10
8.48456e-12
9.96363e-11
9.57125e-12
9.87709e-11
1.07647e-11
9.77851e-11
1.21268e-11
9.66529e-11
1.36026e-11
9.53614e-11
1.52985e-11
9.38794e-11
1.71019e-11
9.21859e-11
1.91927e-11
9.02474e-11
2.13618e-11
8.80287e-11
2.39024e-11
8.55007e-11
2.64591e-11
8.26077e-11
2.94765e-11
7.93314e-11
3.24182e-11
7.55977e-11
3.58719e-11
7.13966e-11
3.91655e-11
6.66607e-11
4.28962e-11
6.13662e-11
4.64541e-11
5.54862e-11
5.01971e-11
4.90061e-11
5.37223e-11
4.19452e-11
5.71457e-11
3.43287e-11
6.02058e-11
2.62266e-11
6.28795e-11
1.77216e-11
6.49897e-11
8.93506e-12
6.64716e-11
6.72283e-11
1.05528e-10
4.81505e-14
1.0552e-10
1.4528e-13
1.05507e-10
2.44644e-13
1.05489e-10
3.47851e-13
1.05466e-10
4.56389e-13
1.05436e-10
5.71976e-13
1.05399e-10
6.96527e-13
1.05356e-10
8.31814e-13
1.05304e-10
9.79915e-13
1.05244e-10
1.14315e-12
1.05174e-10
1.32404e-12
1.05094e-10
1.52525e-12
1.05001e-10
1.75002e-12
1.04893e-10
2.00149e-12
1.04771e-10
2.28373e-12
1.0463e-10
2.60056e-12
1.04469e-10
2.95722e-12
1.04285e-10
3.35811e-12
1.04074e-10
3.81043e-12
1.03832e-10
4.31871e-12
1.03557e-10
4.89299e-12
1.03239e-10
5.53723e-12
1.02878e-10
6.26646e-12
1.0246e-10
7.08149e-12
1.01985e-10
8.00623e-12
1.01433e-10
9.03379e-12
1.00805e-10
1.02037e-11
1.00074e-10
1.14922e-11
9.92398e-11
1.29672e-11
9.82671e-11
1.457e-11
9.71552e-11
1.64204e-11
9.58568e-11
1.83924e-11
9.43675e-11
2.06969e-11
9.26323e-11
2.3086e-11
9.06308e-11
2.5925e-11
8.83154e-11
2.87609e-11
8.56238e-11
3.21953e-11
8.2549e-11
3.5479e-11
7.89539e-11
3.94983e-11
7.48961e-11
4.3214e-11
7.01965e-11
4.76272e-11
6.48687e-11
5.17827e-11
5.88826e-11
5.62125e-11
5.21895e-11
6.04252e-11
4.48283e-11
6.45338e-11
3.67931e-11
6.82563e-11
2.81822e-11
7.15146e-11
1.90762e-11
7.41135e-11
9.63008e-12
7.59391e-11
7.68777e-11
1.05611e-10
4.99306e-14
1.05605e-10
1.50672e-13
1.05596e-10
2.53746e-13
1.05583e-10
3.60729e-13
1.05566e-10
4.73342e-13
1.05545e-10
5.93279e-13
1.05519e-10
7.2248e-13
1.05488e-10
8.62869e-13
1.05451e-10
1.01668e-12
1.05408e-10
1.1863e-12
1.05358e-10
1.37425e-12
1.053e-10
1.58343e-12
1.05233e-10
1.81726e-12
1.05155e-10
2.07899e-12
1.05066e-10
2.37288e-12
1.04963e-10
2.70309e-12
1.04846e-10
3.07504e-12
1.0471e-10
3.49361e-12
1.04554e-10
3.96623e-12
1.04374e-10
4.49798e-12
1.04168e-10
5.09956e-12
1.03929e-10
5.77547e-12
1.03655e-10
6.54151e-12
1.03335e-10
7.39963e-12
1.02968e-10
8.37475e-12
1.02537e-10
9.46141e-12
1.02042e-10
1.07009e-11
1.01459e-10
1.20709e-11
1.00786e-10
1.36431e-11
9.99908e-11
1.5359e-11
9.90677e-11
1.73467e-11
9.79767e-11
1.9475e-11
9.6702e-11
2.19751e-11
9.51982e-11
2.45785e-11
9.34285e-11
2.76976e-11
9.13531e-11
3.08222e-11
8.88942e-11
3.46549e-11
8.60373e-11
3.83189e-11
8.2651e-11
4.2881e-11
7.8748e-11
4.70969e-11
7.41952e-11
5.21701e-11
6.89293e-11
5.70237e-11
6.29004e-11
6.22246e-11
5.60444e-11
6.72539e-11
4.83716e-11
7.21851e-11
3.98839e-11
7.67167e-11
3.06645e-11
8.07112e-11
2.08193e-11
8.39337e-11
1.05287e-11
8.62074e-11
8.73836e-11
1.05719e-10
5.09564e-14
1.05716e-10
1.53748e-13
1.05711e-10
2.58968e-13
1.05703e-10
3.68192e-13
1.05693e-10
4.8317e-13
1.05681e-10
6.05688e-13
1.05666e-10
7.37623e-13
1.05648e-10
8.81046e-13
1.05626e-10
1.03822e-12
1.05601e-10
1.21163e-12
1.05571e-10
1.40394e-12
1.05536e-10
1.61803e-12
1.05496e-10
1.85739e-12
1.0545e-10
2.12549e-12
1.05396e-10
2.42679e-12
1.05333e-10
2.76554e-12
1.05261e-10
3.14745e-12
1.05177e-10
3.57768e-12
1.0508e-10
4.06383e-12
1.04966e-10
4.61162e-12
1.04834e-10
5.23194e-12
1.04679e-10
5.93021e-12
1.04499e-10
6.72255e-12
1.04285e-10
7.6124e-12
1.04038e-10
8.62485e-12
1.03739e-10
9.7569e-12
1.03395e-10
1.10501e-11
1.02976e-10
1.24858e-11
1.02491e-10
1.41362e-11
1.01895e-10
1.59477e-11
1.01204e-10
1.80507e-11
1.0035e-10
2.03174e-11
9.93543e-11
2.2991e-11
9.81252e-11
2.57907e-11
9.66743e-11
2.91782e-11
9.4907e-11
3.25668e-11
9.27715e-11
3.68305e-11
9.02524e-11
4.08121e-11
8.71022e-11
4.6079e-11
8.35461e-11
5.06337e-11
7.91016e-11
5.66595e-11
7.38164e-11
6.23119e-11
6.7727e-11
6.83547e-11
6.06325e-11
7.43665e-11
5.25983e-11
8.02572e-11
4.35428e-11
8.57982e-11
3.35994e-11
9.06892e-11
2.2869e-11
9.46918e-11
1.15855e-11
9.75212e-11
9.8997e-11
1.05818e-10
5.12899e-14
1.05817e-10
1.54574e-13
1.05816e-10
2.60271e-13
1.05814e-10
3.70084e-13
1.05812e-10
4.85675e-13
1.05808e-10
6.08911e-13
1.05804e-10
7.41641e-13
1.05799e-10
8.85963e-13
1.05793e-10
1.04417e-12
1.05786e-10
1.21873e-12
1.05778e-10
1.41249e-12
1.05768e-10
1.62825e-12
1.05755e-10
1.86961e-12
1.05741e-10
2.14015e-12
1.05723e-10
2.44432e-12
1.05702e-10
2.78665e-12
1.05677e-10
3.17283e-12
1.05646e-10
3.6083e-12
1.05609e-10
4.1009e-12
1.05563e-10
4.65678e-12
1.05509e-10
5.28686e-12
1.0544e-10
5.99756e-12
1.05359e-10
6.80488e-12
1.05256e-10
7.71395e-12
1.05132e-10
8.74969e-12
1.04974e-10
9.91189e-12
1.04785e-10
1.12415e-11
1.04541e-10
1.27247e-11
1.04249e-10
1.44324e-11
1.0387e-10
1.63184e-11
1.03413e-10
1.85127e-11
1.02824e-10
2.08954e-11
1.02105e-10
2.3716e-11
1.01188e-10
2.66931e-11
1.00052e-10
3.03209e-11
9.86292e-11
3.39704e-11
9.68305e-11
3.86335e-11
9.46462e-11
4.29736e-11
9.18341e-11
4.88895e-11
8.85302e-11
5.39123e-11
8.44555e-11
6.0723e-11
7.94377e-11
6.72927e-11
7.34219e-11
7.43452e-11
6.62305e-11
8.15171e-11
5.78543e-11
8.85998e-11
4.82328e-11
9.53786e-11
3.744e-11
1.01447e-10
2.56062e-11
1.0649e-10
1.30096e-11
1.10086e-10
1.11976e-10
1.05907e-10
5.07793e-14
1.05909e-10
1.5303e-13
1.05911e-10
2.57677e-13
1.05915e-10
3.66381e-13
1.0592e-10
4.80849e-13
1.05926e-10
6.02925e-13
1.05933e-10
7.34409e-13
1.05942e-10
8.77468e-13
1.05951e-10
1.03433e-12
1.05963e-10
1.20746e-12
1.05976e-10
1.39964e-12
1.0599e-10
1.61382e-12
1.06006e-10
1.85355e-12
1.06024e-10
2.12242e-12
1.06043e-10
2.42486e-12
1.06064e-10
2.76553e-12
1.06087e-10
3.15017e-12
1.06111e-10
3.58436e-12
1.06136e-10
4.07596e-12
1.06161e-10
4.63153e-12
1.06187e-10
5.26183e-12
1.06209e-10
5.97433e-12
1.06232e-10
6.78448e-12
1.06244e-10
7.69946e-12
1.06254e-10
8.7428e-12
1.06244e-10
9.91864e-12
1.06227e-10
1.12644e-11
1.06171e-10
1.27751e-11
1.061e-10
1.45137e-11
1.05957e-10
1.64515e-11
1.05784e-10
1.87016e-11
1.05486e-10
2.11781e-11
1.0513e-10
2.40971e-11
1.04564e-10
2.72362e-11
1.03884e-10
3.10395e-11
1.02872e-10
3.49467e-11
1.01607e-10
3.9956e-11
9.99268e-11
4.46068e-11
9.74794e-11
5.14115e-11
9.51041e-11
5.62439e-11
9.12503e-11
6.46362e-11
8.60779e-11
7.24777e-11
8.01739e-11
8.03004e-11
7.28175e-11
8.89083e-11
6.4077e-11
9.73914e-11
5.3722e-11
1.05778e-10
4.19007e-11
1.13317e-10
2.87599e-11
1.19672e-10
1.4647e-11
1.2424e-10
1.2666e-10
1.06017e-10
4.94236e-14
1.06021e-10
1.49132e-13
1.06027e-10
2.51179e-13
1.06036e-10
3.57146e-13
1.06049e-10
4.68758e-13
1.06064e-10
5.87764e-13
1.06082e-10
7.16044e-13
1.06104e-10
8.55647e-13
1.06129e-10
1.00878e-12
1.06159e-10
1.1778e-12
1.06193e-10
1.36549e-12
1.06232e-10
1.57483e-12
1.06277e-10
1.8092e-12
1.06327e-10
2.07228e-12
1.06383e-10
2.3684e-12
1.06446e-10
2.70216e-12
1.06517e-10
3.07929e-12
1.06596e-10
3.50551e-12
1.06684e-10
3.98844e-12
1.0678e-10
4.53516e-12
1.06886e-10
5.15588e-12
1.07e-10
5.85904e-12
1.07126e-10
6.65946e-12
1.07258e-10
7.56611e-12
1.07401e-10
8.60087e-12
1.07544e-10
9.77205e-12
1.07698e-10
1.11134e-11
1.0784e-10
1.2628e-11
1.07986e-10
1.43718e-11
1.08098e-10
1.63316e-11
1.08199e-10
1.86064e-11
1.08225e-10
2.11394e-11
1.0821e-10
2.41214e-11
1.0805e-10
2.73783e-11
1.07779e-10
3.13222e-11
1.07256e-10
3.54444e-11
1.0645e-10
4.07746e-11
1.05283e-10
4.57421e-11
1.03281e-10
5.34192e-11
1.01138e-10
5.83633e-11
9.81873e-11
3.6438e-11
3.11442e-11
9.38664e-11
3.56509e-11
4.109e-11
8.82718e-11
4.01797e-11
4.56756e-11
8.09952e-11
4.53516e-11
5.07722e-11
7.19769e-11
5.05751e-11
5.57786e-11
6.10187e-11
5.59285e-11
6.07411e-11
4.80707e-11
6.10311e-11
6.51743e-11
3.32556e-11
6.56155e-11
6.8816e-11
1.70179e-11
6.92014e-11
7.12286e-11
7.14695e-11
7.21644e-11
1.0611e-10
4.73907e-14
1.06116e-10
1.43028e-13
1.06126e-10
2.40849e-13
1.06141e-10
3.42454e-13
1.0616e-10
4.4948e-13
1.06184e-10
5.63616e-13
1.06214e-10
6.86769e-13
1.06249e-10
8.20725e-13
1.0629e-10
9.67795e-13
1.06337e-10
1.13011e-12
1.06392e-10
1.31042e-12
1.06455e-10
1.51168e-12
1.06528e-10
1.73706e-12
1.0661e-10
1.99024e-12
1.06703e-10
2.27535e-12
1.06808e-10
2.59706e-12
1.06927e-10
2.96073e-12
1.0706e-10
3.37221e-12
1.0721e-10
3.83879e-12
1.07377e-10
4.36782e-12
1.07565e-10
4.96902e-12
1.07771e-10
5.65153e-12
1.08003e-10
6.42896e-12
1.08255e-10
7.31253e-12
1.08538e-10
8.32124e-12
1.08838e-10
9.46866e-12
1.09175e-10
1.07821e-11
1.09521e-10
1.22765e-11
1.0991e-10
1.39931e-11
1.10285e-10
1.59458e-11
1.1071e-10
1.81984e-11
1.11074e-10
2.07573e-11
1.11498e-10
2.37268e-11
1.11759e-10
2.70878e-11
1.12106e-10
3.1021e-11
1.12064e-10
3.54376e-11
1.1224e-10
4.06741e-11
1.11438e-10
4.64615e-11
1.11515e-10
5.34741e-11
5.53211e-11
6.10089e-11
5.33899e-11
-3.18855e-11
3.28365e-11
5.474e-11
-5.20514e-11
5.1099e-11
3.65002e-11
-5.0367e-11
4.90442e-11
4.14409e-11
-4.77851e-11
4.6123e-11
4.6984e-11
-4.43993e-11
4.21994e-11
5.27671e-11
-3.98386e-11
3.70588e-11
5.87133e-11
-3.40127e-11
3.06325e-11
6.4419e-11
-2.69386e-11
2.29883e-11
6.95735e-11
-1.8744e-11
1.42906e-11
7.36646e-11
-9.62736e-12
4.85177e-12
7.62613e-11
1.06201e-10
4.46395e-14
1.06209e-10
1.3466e-13
1.06223e-10
2.2678e-13
1.06243e-10
3.22515e-13
1.0627e-10
4.2337e-13
1.06302e-10
5.30903e-13
1.06342e-10
6.46939e-13
1.0639e-10
7.7324e-13
1.06445e-10
9.11922e-13
1.06511e-10
1.06504e-12
1.06586e-10
1.2352e-12
1.06672e-10
1.42522e-12
1.06771e-10
1.63805e-12
1.06884e-10
1.8773e-12
1.07013e-10
2.14692e-12
1.07158e-10
2.4514e-12
1.07323e-10
2.79577e-12
1.07509e-10
3.1859e-12
1.0772e-10
3.62854e-12
1.07956e-10
4.13112e-12
1.08223e-10
4.70277e-12
1.0852e-10
5.35318e-12
1.08856e-10
6.09453e-12
1.09226e-10
6.93976e-12
1.09644e-10
7.90516e-12
1.10101e-10
9.00823e-12
1.10616e-10
1.0271e-11
1.11169e-10
1.17174e-11
1.11791e-10
1.33768e-11
1.12443e-10
1.52839e-11
1.13174e-10
1.74762e-11
1.13909e-10
2.00068e-11
1.14731e-10
2.29178e-11
1.15495e-10
2.63022e-11
1.16356e-10
3.01795e-11
1.17002e-10
3.47568e-11
1.17816e-10
3.9893e-11
1.17999e-10
4.62222e-11
1.18782e-10
5.27541e-11
6.03811e-11
6.20648e-11
5.7239e-11
-3.31625e-11
3.37638e-11
6.0064e-11
-5.66018e-11
5.58844e-11
-3.76662e-11
3.82273e-11
-5.53532e-11
5.43061e-11
-4.30145e-11
4.39537e-11
-5.3281e-11
5.17888e-11
-4.89572e-11
5.0381e-11
-5.01933e-11
4.80684e-11
-5.52741e-11
5.73628e-11
-4.57638e-11
4.28138e-11
-6.17359e-11
6.46737e-11
-3.94825e-11
3.5795e-11
-6.81533e-11
7.18335e-11
-3.16631e-11
2.71737e-11
-7.39933e-11
7.84772e-11
-2.22686e-11
1.70466e-11
-7.86456e-11
8.38676e-11
-1.15252e-11
5.8174e-12
-8.15566e-11
8.72761e-11
1.06289e-10
4.11705e-14
1.063e-10
1.24224e-13
1.06317e-10
2.09288e-13
1.06342e-10
2.97624e-13
1.06375e-10
3.90745e-13
1.06415e-10
4.90096e-13
1.06465e-10
5.97191e-13
1.06525e-10
7.13853e-13
1.06595e-10
8.4194e-13
1.06676e-10
9.83477e-13
1.0677e-10
1.14084e-12
1.06879e-10
1.31662e-12
1.07004e-10
1.51353e-12
1.07146e-10
1.73507e-12
1.07308e-10
1.98485e-12
1.07492e-10
2.26705e-12
1.07702e-10
2.58648e-12
1.07939e-10
2.94878e-12
1.08208e-10
3.36008e-12
1.0851e-10
3.82774e-12
1.08854e-10
4.36002e-12
1.09239e-10
4.96699e-12
1.09677e-10
5.65916e-12
1.10164e-10
6.4508e-12
1.10717e-10
7.35513e-12
1.11328e-10
8.39332e-12
1.12024e-10
9.581e-12
1.12784e-10
1.09514e-11
1.13651e-10
1.25201e-11
1.1458e-10
1.43435e-11
1.15646e-10
1.64284e-11
1.16756e-10
1.88782e-11
1.18035e-10
2.16667e-11
1.19308e-10
2.49992e-11
1.20785e-10
2.87464e-11
1.22137e-10
3.33563e-11
1.23711e-10
3.83871e-11
1.24938e-10
4.49202e-11
1.2625e-10
5.15423e-11
6.53829e-11
6.11817e-11
6.16374e-11
-3.37234e-11
3.38186e-11
6.55096e-11
-6.17005e-11
6.13554e-11
-3.90363e-11
3.9266e-11
-6.11383e-11
6.0469e-11
-4.51324e-11
4.5734e-11
-5.97601e-11
5.86107e-11
-5.20637e-11
5.31862e-11
-5.72878e-11
5.54147e-11
-5.9699e-11
6.15835e-11
-5.34851e-11
5.02627e-11
-6.74518e-11
7.07256e-11
-4.64191e-11
4.24829e-11
-7.57119e-11
7.96834e-11
-3.78797e-11
3.27884e-11
-8.34202e-11
8.85325e-11
-2.70698e-11
2.08483e-11
-8.97015e-11
9.59365e-11
-1.41634e-11
7.16809e-12
-9.36646e-11
1.00675e-10
1.06369e-10
3.71194e-14
1.06382e-10
1.11975e-13
1.06402e-10
1.88596e-13
1.06432e-10
2.68189e-13
1.06471e-10
3.52072e-13
1.06519e-10
4.41667e-13
1.06578e-10
5.38244e-13
1.06648e-10
6.43422e-13
1.06731e-10
7.58957e-13
1.06828e-10
8.86666e-13
1.0694e-10
1.0287e-12
1.07069e-10
1.1874e-12
1.07218e-10
1.36529e-12
1.07387e-10
1.56554e-12
1.07581e-10
1.79133e-12
1.07801e-10
2.04665e-12
1.08052e-10
2.33587e-12
1.08336e-10
2.66417e-12
1.08659e-10
3.03711e-12
1.09025e-10
3.46171e-12
1.0944e-10
3.94525e-12
1.09908e-10
4.49782e-12
1.10441e-10
5.12823e-12
1.11038e-10
5.85124e-12
1.11718e-10
6.6774e-12
1.12477e-10
7.63001e-12
1.13343e-10
8.71926e-12
1.14304e-10
9.98421e-12
1.154e-10
1.143e-11
1.16607e-10
1.3127e-11
1.17985e-10
1.50601e-11
1.19482e-10
1.73656e-11
1.21194e-10
1.99702e-11
1.23015e-10
2.31547e-11
1.25097e-10
2.66876e-11
1.27236e-10
3.11826e-11
1.2967e-10
3.59903e-11
1.32021e-10
4.25146e-11
1.3459e-10
4.90357e-11
7.04464e-11
5.88112e-11
6.64282e-11
-3.3411e-11
3.29872e-11
7.10408e-11
-6.73411e-11
6.74659e-11
-3.95845e-11
3.93744e-11
-6.77042e-11
6.75556e-11
-4.64134e-11
4.65221e-11
-6.72897e-11
6.67142e-11
-5.44603e-11
5.50358e-11
-6.56724e-11
6.4571e-11
-6.39768e-11
6.51211e-11
-3.17367e-11
-3.81745e-11
3.06458e-11
3.88973e-11
-2.81073e-11
-4.44208e-11
2.68254e-11
4.54172e-11
-2.29421e-11
-4.99169e-11
2.12544e-11
5.13987e-11
-1.58967e-11
-5.43523e-11
1.37879e-11
5.63316e-11
-7.18198e-12
5.92837e-11
-5.69506e-11
4.79485e-12
1.06441e-10
3.25018e-14
1.06455e-10
9.79616e-14
1.06478e-10
1.64987e-13
1.06512e-10
2.34663e-13
1.06556e-10
3.0805e-13
1.06611e-10
3.86365e-13
1.06679e-10
4.70901e-13
1.06759e-10
5.63027e-13
1.06854e-10
6.64189e-13
1.06964e-10
7.76047e-13
1.07093e-10
9.00459e-13
1.0724e-10
1.03953e-12
1.0741e-10
1.19554e-12
1.07605e-10
1.37117e-12
1.07827e-10
1.56927e-12
1.0808e-10
1.79351e-12
1.08368e-10
2.04755e-12
1.08696e-10
2.33621e-12
1.09069e-10
2.66421e-12
1.09492e-10
3.03821e-12
1.09974e-10
3.46437e-12
1.10519e-10
3.95214e-12
1.1114e-10
4.50886e-12
1.1184e-10
5.14914e-12
1.1264e-10
5.88087e-12
1.13539e-10
6.72783e-12
1.14568e-10
7.69601e-12
1.15719e-10
8.82696e-12
1.17041e-10
1.0118e-11
1.18511e-10
1.16461e-11
1.20204e-10
1.3383e-11
1.22074e-10
1.54789e-11
1.24229e-10
1.78393e-11
1.26588e-10
2.07695e-11
1.29299e-10
2.40133e-11
1.32234e-10
2.82076e-11
1.35557e-10
3.27205e-11
1.39119e-10
3.88942e-11
1.42961e-10
4.52654e-11
7.55631e-11
5.46169e-11
7.1514e-11
-3.20979e-11
3.10614e-11
7.6734e-11
-7.3445e-11
7.4156e-11
-3.90884e-11
3.83124e-11
-7.50084e-11
7.55226e-11
-4.65008e-11
4.59623e-11
-7.59649e-11
7.60611e-11
-5.5431e-11
5.53434e-11
-7.58248e-11
7.51237e-11
-6.59737e-11
6.67106e-11
-3.83887e-11
-4.09499e-11
3.75476e-11
4.14252e-11
-3.49615e-11
-4.85708e-11
3.37459e-11
4.95524e-11
-2.93931e-11
-5.63112e-11
2.75633e-11
5.80015e-11
-2.09596e-11
-6.31087e-11
1.83771e-11
6.56178e-11
-9.65641e-12
7.05322e-11
-6.74005e-11
6.50014e-12
1.06505e-10
2.73332e-14
1.06521e-10
8.23932e-14
1.06547e-10
1.38816e-13
1.06584e-10
1.97459e-13
1.06633e-10
2.59269e-13
1.06694e-10
3.25163e-13
1.06769e-10
3.96284e-13
1.06858e-10
4.73872e-13
1.06963e-10
5.59036e-13
1.07086e-10
6.53274e-13
1.07228e-10
7.58094e-13
1.07392e-10
8.75299e-13
1.07581e-10
1.00684e-12
1.07797e-10
1.1549e-12
1.08045e-10
1.32206e-12
1.08327e-10
1.51135e-12
1.08648e-10
1.72585e-12
1.09014e-10
1.96982e-12
1.09432e-10
2.24711e-12
1.09906e-10
2.56372e-12
1.10446e-10
2.92457e-12
1.11059e-10
3.33822e-12
1.11759e-10
3.81049e-12
1.12551e-10
4.355e-12
1.13457e-10
4.97728e-12
1.14481e-10
5.70004e-12
1.15655e-10
6.52595e-12
1.1698e-10
7.49578e-12
1.18503e-10
8.60148e-12
1.20219e-10
9.92035e-12
1.22197e-10
1.14154e-11
1.24421e-10
1.32401e-11
1.26989e-10
1.52866e-11
1.29871e-10
1.78661e-11
1.33197e-10
2.07092e-11
1.36922e-10
2.44526e-11
1.41195e-10
2.84807e-11
1.4597e-10
3.40759e-11
1.51332e-10
3.99515e-11
8.06e-11
4.85578e-11
7.67302e-11
-2.96361e-11
2.79685e-11
8.23732e-11
-7.98321e-11
8.12485e-11
-3.73147e-11
3.58465e-11
-8.28806e-11
8.4262e-11
-4.51095e-11
4.37115e-11
-8.5676e-11
8.68019e-11
-5.48322e-11
5.37158e-11
-8.77435e-11
8.82138e-11
-6.68985e-11
6.64564e-11
-4.62005e-11
-4.26397e-11
4.5669e-11
4.28194e-11
-4.39712e-11
-5.24222e-11
4.29472e-11
5.32473e-11
-3.88194e-11
-6.34495e-11
3.68653e-11
6.53106e-11
-2.89973e-11
-7.42331e-11
2.56825e-11
7.75224e-11
-1.38486e-11
8.62026e-11
-8.17161e-11
9.36971e-12
1.06558e-10
2.17473e-14
1.06575e-10
6.55885e-14
1.06603e-10
1.10491e-13
1.06644e-10
1.57153e-13
1.06697e-10
2.06394e-13
1.06763e-10
2.58933e-13
1.06844e-10
3.15529e-13
1.0694e-10
3.77314e-13
1.07054e-10
4.45133e-13
1.07187e-10
5.20209e-13
1.07341e-10
6.03798e-13
1.07519e-10
6.97193e-13
1.07724e-10
8.02046e-13
1.07959e-10
9.20133e-13
1.08228e-10
1.05355e-12
1.08534e-10
1.20461e-12
1.08884e-10
1.37589e-12
1.09283e-10
1.57079e-12
1.09738e-10
1.79242e-12
1.10256e-10
2.04571e-12
1.10847e-10
2.3344e-12
1.11518e-10
2.66595e-12
1.12286e-10
3.04448e-12
1.13157e-10
3.48169e-12
1.14156e-10
3.98155e-12
1.15289e-10
4.56364e-12
1.16592e-10
5.22887e-12
1.18069e-10
6.01289e-12
1.19773e-10
6.90678e-12
1.21705e-10
7.97831e-12
1.23941e-10
9.19344e-12
1.26481e-10
1.06853e-11
1.29427e-10
1.23612e-11
1.32784e-10
1.44871e-11
1.3668e-10
1.68428e-11
1.41144e-10
1.99576e-11
1.46308e-10
2.33568e-11
1.52274e-10
2.80679e-11
1.5911e-10
3.31644e-11
8.52836e-11
4.05337e-11
8.17985e-11
-2.59328e-11
2.36043e-11
8.76956e-11
-8.61977e-11
8.84282e-11
-3.40445e-11
3.17723e-11
-9.09738e-11
9.3425e-11
-4.18488e-11
3.9385e-11
-9.60613e-11
9.85935e-11
-5.19627e-11
4.94385e-11
-1.01142e-10
1.03444e-10
-6.51741e-11
6.28934e-11
-5.55381e-11
-4.26684e-11
5.56014e-11
4.22741e-11
-5.58634e-11
-5.50068e-11
5.54529e-11
5.52404e-11
-5.30749e-11
-7.06273e-11
5.16885e-11
7.19471e-11
-4.24233e-11
-8.84838e-11
3.82957e-11
9.26551e-11
-2.17909e-11
1.09672e-10
-1.02738e-10
1.49203e-11
1.06599e-10
1.58244e-14
1.06617e-10
4.77407e-14
1.06647e-10
8.0476e-14
1.0669e-10
1.14434e-13
1.06746e-10
1.50313e-13
1.06816e-10
1.88606e-13
1.06902e-10
2.29858e-13
1.07005e-10
2.74895e-13
1.07125e-10
3.24247e-13
1.07267e-10
3.78971e-13
1.07431e-10
4.39955e-13
1.0762e-10
5.08028e-13
1.07837e-10
5.84472e-13
1.08087e-10
6.70609e-13
1.08373e-10
7.67911e-13
1.08699e-10
8.78212e-13
1.09072e-10
1.00323e-12
1.09497e-10
1.14555e-12
1.09982e-10
1.30747e-12
1.10534e-10
1.49264e-12
1.11166e-10
1.70376e-12
1.11884e-10
1.94644e-12
1.12706e-10
2.22358e-12
1.13642e-10
2.54419e-12
1.14715e-10
2.91066e-12
1.15937e-10
3.33853e-12
1.17342e-10
3.82722e-12
1.18944e-10
4.40532e-12
1.20794e-10
5.06355e-12
1.22906e-10
5.857e-12
1.25354e-10
6.75498e-12
1.28161e-10
7.8659e-12
1.31425e-10
9.11063e-12
1.35189e-10
1.0705e-11
1.39583e-10
1.24689e-11
1.4469e-10
1.48255e-11
1.50669e-10
1.7405e-11
1.57698e-10
2.1007e-11
1.6594e-10
2.4957e-11
8.93211e-11
3.06712e-11
8.64407e-11
-2.09615e-11
1.80272e-11
9.23189e-11
-9.21405e-11
9.52281e-11
-2.91015e-11
2.59818e-11
-9.8752e-11
1.02399e-10
-3.63556e-11
3.26998e-11
-1.06436e-10
1.10666e-10
-4.61032e-11
4.18799e-11
-1.15225e-10
1.19968e-10
-5.9457e-11
5.47301e-11
-6.60603e-11
-3.98106e-11
6.70895e-11
3.84886e-11
-7.07562e-11
-5.43069e-11
7.16363e-11
5.32714e-11
-7.34637e-11
-7.57125e-11
7.58552e-11
3.86152e-11
3.46309e-11
-3.16547e-11