/*--------------------------------*- C++ -*----------------------------------*\
| =========                 |                                                 |
| \\      /  F ield         | foam-extend: Open Source CFD                    |
|  \\    /   O peration     | Version:     4.0                                |
|   \\  /    A nd           | Web:         http://www.foam-extend.org         |
|    \\/     M anipulation  |                                                 |
\*---------------------------------------------------------------------------*/
FoamFile
{
    version     2.0;
    format      ascii;
    class       volVectorField;
    location    "0.0017";
    object      U;
}
// * * * * * * * * * * * * * * * * * * * * * * * * * * * * * * * * * * * * * //

dimensions      [0 1 -1 0 0 0 0];

internalField   nonuniform List<vector> 
28770
(
(0.00357585 1.04052e-07 0)
(0.00357543 3.14572e-07 0)
(0.00357457 5.30745e-07 0)
(0.00357327 7.53976e-07 0)
(0.00357151 9.89472e-07 0)
(0.00356925 1.23851e-06 0)
(0.00356647 1.50755e-06 0)
(0.00356312 1.79452e-06 0)
(0.00355916 2.11333e-06 0)
(0.00355451 2.46602e-06 0)
(0.00354912 2.85421e-06 0)
(0.0035429 3.28248e-06 0)
(0.00353576 3.759e-06 0)
(0.00352759 4.29529e-06 0)
(0.00351827 4.8921e-06 0)
(0.00350768 5.55871e-06 0)
(0.00349564 6.3077e-06 0)
(0.00348201 7.14593e-06 0)
(0.00346655 8.08154e-06 0)
(0.00344912 9.13136e-06 0)
(0.00342937 1.03102e-05 0)
(0.00340716 1.16203e-05 0)
(0.00338205 1.30936e-05 0)
(0.0033539 1.47223e-05 0)
(0.00332211 1.65517e-05 0)
(0.00328658 1.8559e-05 0)
(0.00324653 2.08188e-05 0)
(0.00320194 2.32666e-05 0)
(0.00315178 2.60318e-05 0)
(0.00309614 2.89806e-05 0)
(0.00303377 3.23174e-05 0)
(0.00296487 3.58009e-05 0)
(0.00288801 3.97659e-05 0)
(0.00280343 4.37943e-05 0)
(0.00270972 4.83979e-05 0)
(0.00260704 5.2937e-05 0)
(0.00249425 5.81071e-05 0)
(0.00237131 6.30635e-05 0)
(0.0022376 6.86291e-05 0)
(0.00209284 7.38253e-05 0)
(0.00193716 7.94902e-05 0)
(0.00177012 8.46473e-05 0)
(0.00159263 9.00036e-05 0)
(0.00140433 9.47377e-05 0)
(0.00120685 9.93317e-05 0)
(0.00100016 0.000103183 0)
(0.000786417 0.000106565 0)
(0.000566083 0.000109093 0)
(0.000341683 0.00011089 0)
(0.00011406 0.000111772 0)
(0.00357626 3.1068e-07 0)
(0.00357584 9.40921e-07 0)
(0.003575 1.58044e-06 0)
(0.00357372 2.24653e-06 0)
(0.00357198 2.94915e-06 0)
(0.00356976 3.69541e-06 0)
(0.00356702 4.49555e-06 0)
(0.00356372 5.36411e-06 0)
(0.00355981 6.31432e-06 0)
(0.00355523 7.36151e-06 0)
(0.00354992 8.5185e-06 0)
(0.00354379 9.79856e-06 0)
(0.00353675 1.12309e-05 0)
(0.0035287 1.28231e-05 0)
(0.00351951 1.46049e-05 0)
(0.00350907 1.65978e-05 0)
(0.00349719 1.88319e-05 0)
(0.00348375 2.13313e-05 0)
(0.0034685 2.41341e-05 0)
(0.0034513 2.72638e-05 0)
(0.00343181 3.07812e-05 0)
(0.00340989 3.46908e-05 0)
(0.00338509 3.90818e-05 0)
(0.00335728 4.39444e-05 0)
(0.00332586 4.93958e-05 0)
(0.00329076 5.53916e-05 0)
(0.00325114 6.21145e-05 0)
(0.00320704 6.94392e-05 0)
(0.00315737 7.76338e-05 0)
(0.00310229 8.64655e-05 0)
(0.00304046 9.6319e-05 0)
(0.00297216 0.000106796 0)
(0.00289584 0.000118436 0)
(0.00281187 0.000130621 0)
(0.00271867 0.000144044 0)
(0.00261655 0.000157858 0)
(0.00250416 0.000172872 0)
(0.00238161 0.000188043 0)
(0.00224814 0.000204183 0)
(0.00210348 0.00022016 0)
(0.00194776 0.000236644 0)
(0.00178042 0.000252534 0)
(0.00160251 0.000268268 0)
(0.00141347 0.000282861 0)
(0.00121511 0.000296497 0)
(0.00100724 0.000308376 0)
(0.000792203 0.000318503 0)
(0.000570319 0.000326306 0)
(0.000344306 0.000331719 0)
(0.000114924 0.000334443 0)
(0.00357708 5.14733e-07 0)
(0.00357667 1.55112e-06 0)
(0.00357586 2.60995e-06 0)
(0.00357461 3.70767e-06 0)
(0.00357292 4.866e-06 0)
(0.00357077 6.09733e-06 0)
(0.00356811 7.41932e-06 0)
(0.0035649 8.85473e-06 0)
(0.00356111 1.04245e-05 0)
(0.00355666 1.21499e-05 0)
(0.00355151 1.40581e-05 0)
(0.00354555 1.61776e-05 0)
(0.00353872 1.85377e-05 0)
(0.0035309 2.11686e-05 0)
(0.00352197 2.41122e-05 0)
(0.00351182 2.74092e-05 0)
(0.00350028 3.11013e-05 0)
(0.00348721 3.52333e-05 0)
(0.00347237 3.98703e-05 0)
(0.00345562 4.50513e-05 0)
(0.00343664 5.08705e-05 0)
(0.00341529 5.73459e-05 0)
(0.00339111 6.46235e-05 0)
(0.003364 7.26799e-05 0)
(0.00333332 8.17338e-05 0)
(0.00329903 9.16767e-05 0)
(0.00326028 0.000102859 0)
(0.00321713 0.000115015 0)
(0.00316845 0.000128694 0)
(0.00311444 0.000143358 0)
(0.00305369 0.000159881 0)
(0.00298652 0.000177279 0)
(0.00291134 0.000196897 0)
(0.0028285 0.000217121 0)
(0.00273639 0.000239884 0)
(0.00263527 0.000262804 0)
(0.0025238 0.000288422 0)
(0.00240197 0.00031359 0)
(0.00226904 0.000341259 0)
(0.00212463 0.000367807 0)
(0.00196887 0.000396108 0)
(0.00180109 0.000422608 0)
(0.00162232 0.00044958 0)
(0.00143197 0.000474017 0)
(0.00123183 0.000497333 0)
(0.0010217 0.000517297 0)
(0.000803973 0.000534578 0)
(0.000579024 0.000547722 0)
(0.000349651 0.000556949 0)
(0.000116727 0.000561543 0)
(0.00357829 7.08906e-07 0)
(0.0035779 2.13802e-06 0)
(0.00357712 3.60238e-06 0)
(0.00357593 5.11877e-06 0)
(0.00357432 6.71123e-06 0)
(0.00357226 8.40854e-06 0)
(0.00356972 1.02351e-05 0)
(0.00356666 1.22148e-05 0)
(0.00356304 1.43821e-05 0)
(0.0035588 1.67627e-05 0)
(0.00355386 1.93981e-05 0)
(0.00354818 2.23223e-05 0)
(0.00354164 2.55796e-05 0)
(0.00353416 2.92163e-05 0)
(0.00352562 3.32844e-05 0)
(0.00351591 3.78366e-05 0)
(0.00350485 4.29407e-05 0)
(0.00349234 4.86514e-05 0)
(0.00347812 5.50642e-05 0)
(0.00346206 6.22343e-05 0)
(0.00344385 7.02817e-05 0)
(0.00342335 7.92501e-05 0)
(0.0034001 8.93264e-05 0)
(0.00337404 0.000100491 0)
(0.00334447 0.000113041 0)
(0.00331145 0.000126847 0)
(0.003274 0.000142355 0)
(0.00323234 0.000159265 0)
(0.00318513 0.000178254 0)
(0.00313283 0.000198709 0)
(0.00307367 0.00022165 0)
(0.00300841 0.000246011 0)
(0.00293485 0.000273257 0)
(0.00285397 0.000301708 0)
(0.0027634 0.000333341 0)
(0.00266408 0.000365765 0)
(0.00255389 0.00040139 0)
(0.00243335 0.000437213 0)
(0.00230122 0.000475788 0)
(0.00215719 0.000513783 0)
(0.00200143 0.000553447 0)
(0.00183278 0.000591558 0)
(0.00165284 0.000629648 0)
(0.00146023 0.000664926 0)
(0.00125749 0.000698131 0)
(0.00104371 0.000727053 0)
(0.000821995 0.000751835 0)
(0.000592224 0.000770931 0)
(0.00035784 0.000784224 0)
(0.000119423 0.00079091 0)
(0.00357987 8.95551e-07 0)
(0.0035795 2.69557e-06 0)
(0.00357877 4.53721e-06 0)
(0.00357766 6.44853e-06 0)
(0.00357615 8.45903e-06 0)
(0.00357422 1.05981e-05 0)
(0.00357183 1.28982e-05 0)
(0.00356896 1.53992e-05 0)
(0.00356556 1.8127e-05 0)
(0.00356158 2.11336e-05 0)
(0.00355695 2.4457e-05 0)
(0.00355161 2.81456e-05 0)
(0.00354547 3.22607e-05 0)
(0.00353844 3.68523e-05 0)
(0.00353041 4.19887e-05 0)
(0.00352128 4.77362e-05 0)
(0.00351086 5.41871e-05 0)
(0.00349908 6.14087e-05 0)
(0.00348566 6.95267e-05 0)
(0.00347053 7.85952e-05 0)
(0.00345331 8.87928e-05 0)
(0.00343394 0.000100158 0)
(0.00341191 0.000112945 0)
(0.00338722 0.000127119 0)
(0.00335912 0.000143075 0)
(0.00332774 0.000160631 0)
(0.00329203 0.000180418 0)
(0.00325228 0.000201954 0)
(0.00320707 0.000226278 0)
(0.00315693 0.000252377 0)
(0.00310001 0.000281929 0)
(0.00303705 0.000313059 0)
(0.00296588 0.000348411 0)
(0.00288733 0.000384817 0)
(0.00279911 0.000426208 0)
(0.0027019 0.000467752 0)
(0.00259377 0.000514811 0)
(0.00247481 0.000560821 0)
(0.00234401 0.000612185 0)
(0.00220067 0.00066123 0)
(0.00204502 0.000714294 0)
(0.0018757 0.000763898 0)
(0.00169416 0.000814883 0)
(0.00149903 0.0008612 0)
(0.00129266 0.000905643 0)
(0.00107429 0.000943885 0)
(0.000846936 0.000977072 0)
(0.000610739 0.00100244 0)
(0.000369214 0.00102026 0)
(0.000123274 0.00102916 0)
(0.00358179 1.06742e-06 0)
(0.00358146 3.21239e-06 0)
(0.00358079 5.40526e-06 0)
(0.00357977 7.68562e-06 0)
(0.00357838 1.00819e-05 0)
(0.00357661 1.26323e-05 0)
(0.00357442 1.53764e-05 0)
(0.00357178 1.83522e-05 0)
(0.00356866 2.1609e-05 0)
(0.00356499 2.51967e-05 0)
(0.00356073 2.91616e-05 0)
(0.00355581 3.35654e-05 0)
(0.00355016 3.84739e-05 0)
(0.00354368 4.39574e-05 0)
(0.00353628 5.00971e-05 0)
(0.00352785 5.69667e-05 0)
(0.00351824 6.46775e-05 0)
(0.00350735 7.33193e-05 0)
(0.00349494 8.30301e-05 0)
(0.00348093 9.38936e-05 0)
(0.00346496 0.000106118 0)
(0.003447 0.000119749 0)
(0.0034265 0.000135095 0)
(0.00340354 0.000152131 0)
(0.00337728 0.000171311 0)
(0.00334801 0.000192462 0)
(0.00331446 0.000216296 0)
(0.00327724 0.000242328 0)
(0.00323449 0.000271685 0)
(0.00318732 0.000303363 0)
(0.00313309 0.000339107 0)
(0.0030735 0.000377107 0)
(0.00300511 0.000419946 0)
(0.00293015 0.000464698 0)
(0.00284461 0.000514961 0)
(0.00275083 0.000566471 0)
(0.00264502 0.000623767 0)
(0.00252869 0.000681341 0)
(0.00239954 0.000744165 0)
(0.00225716 0.000806085 0)
(0.00210195 0.000871513 0)
(0.00193127 0.000934607 0)
(0.00174812 0.000998251 0)
(0.00154909 0.00105756 0)
(0.00133845 0.00111374 0)
(0.00111365 0.00116301 0)
(0.000879331 0.00120539 0)
(0.000634508 0.00123825 0)
(0.000384001 0.00126116 0)
(0.000128141 0.00127273 0)
(0.00358405 1.21981e-06 0)
(0.00358376 3.6804e-06 0)
(0.00358315 6.19653e-06 0)
(0.00358223 8.80726e-06 0)
(0.00358099 1.15549e-05 0)
(0.0035794 1.44779e-05 0)
(0.00357744 1.7624e-05 0)
(0.00357507 2.10394e-05 0)
(0.00357226 2.4778e-05 0)
(0.00356898 2.88894e-05 0)
(0.00356515 3.34425e-05 0)
(0.00356073 3.85013e-05 0)
(0.00355564 4.41383e-05 0)
(0.00354982 5.04374e-05 0)
(0.00354315 5.74917e-05 0)
(0.00353556 6.5395e-05 0)
(0.00352688 7.42693e-05 0)
(0.00351705 8.42189e-05 0)
(0.00350581 9.54078e-05 0)
(0.00349313 0.000107936 0)
(0.00347863 0.000122047 0)
(0.00346232 0.000137793 0)
(0.00344362 0.000155549 0)
(0.00342268 0.000175268 0)
(0.00339862 0.000197531 0)
(0.00337179 0.000222077 0)
(0.00334085 0.000249848 0)
(0.00330652 0.000280144 0)
(0.00326684 0.00031454 0)
(0.00322295 0.000351505 0)
(0.00317221 0.000393706 0)
(0.00311621 0.000438153 0)
(0.00305165 0.000489241 0)
(0.00298037 0.000541693 0)
(0.00289876 0.000602403 0)
(0.00280844 0.000662883 0)
(0.00270624 0.000733082 0)
(0.0025927 0.000800909 0)
(0.00246616 0.000878909 0)
(0.00232536 0.000952445 0)
(0.00217087 0.00103428 0)
(0.0019998 0.00111036 0)
(0.00181456 0.00118995 0)
(0.00161211 0.00126251 0)
(0.00139591 0.0013328 0)
(0.00116404 0.00139378 0)
(0.000920616 0.00144693 0)
(0.000665345 0.0014879 0)
(0.000402975 0.00151669 0)
(0.000134601 0.00153116 0)
(0.0035866 1.35834e-06 0)
(0.00358634 4.09548e-06 0)
(0.00358581 6.89488e-06 0)
(0.00358502 9.801e-06 0)
(0.00358393 1.28573e-05 0)
(0.00358255 1.61114e-05 0)
(0.00358084 1.96108e-05 0)
(0.00357878 2.34172e-05 0)
(0.00357634 2.7579e-05 0)
(0.00357348 3.21607e-05 0)
(0.00357014 3.72347e-05 0)
(0.00356629 4.28735e-05 0)
(0.00356184 4.91615e-05 0)
(0.00355676 5.61875e-05 0)
(0.00355093 6.40638e-05 0)
(0.00354428 7.28887e-05 0)
(0.00353667 8.28096e-05 0)
(0.00352805 9.39337e-05 0)
(0.00351817 0.000106457 0)
(0.00350701 0.000120491 0)
(0.0034942 0.000136306 0)
(0.00347981 0.000153987 0)
(0.00346319 0.000173931 0)
(0.00344465 0.000196127 0)
(0.00342311 0.000221194 0)
(0.00339924 0.000248914 0)
(0.00337131 0.000280274 0)
(0.00334059 0.000314636 0)
(0.00330437 0.000353595 0)
(0.00326484 0.000395779 0)
(0.00321793 0.000443724 0)
(0.00316705 0.000494838 0)
(0.00310649 0.000553062 0)
(0.00304094 0.000613983 0)
(0.00296327 0.000683371 0)
(0.00287879 0.000754476 0)
(0.00278017 0.000834997 0)
(0.00267148 0.000915821 0)
(0.00254792 0.0010058 0)
(0.0024093 0.00109455 0)
(0.00225658 0.00119001 0)
(0.00208369 0.00128274 0)
(0.0018971 0.00137744 0)
(0.00168898 0.00146669 0)
(0.00146699 0.00155195 0)
(0.0012254 0.00162763 0)
(0.00097149 0.00169311 0)
(0.000702813 0.00174439 0)
(0.000426364 0.00178022 0)
(0.000142316 0.00179844 0)
(0.00358939 1.47407e-06 0)
(0.00358918 4.44881e-06 0)
(0.00358874 7.49022e-06 0)
(0.00358808 1.06474e-05 0)
(0.00358717 1.39695e-05 0)
(0.00358602 1.75066e-05 0)
(0.00358459 2.1313e-05 0)
(0.00358287 2.54468e-05 0)
(0.00358083 2.99734e-05 0)
(0.00357843 3.496e-05 0)
(0.00357564 4.04806e-05 0)
(0.00357241 4.66204e-05 0)
(0.00356868 5.34694e-05 0)
(0.00356441 6.11258e-05 0)
(0.00355951 6.97153e-05 0)
(0.00355391 7.93442e-05 0)
(0.00354749 9.01742e-05 0)
(0.0035402 0.000102328 0)
(0.00353182 0.000116025 0)
(0.00352236 0.000131387 0)
(0.00351142 0.000148723 0)
(0.00349915 0.00016812 0)
(0.00348488 0.000190038 0)
(0.00346896 0.000214457 0)
(0.00345031 0.000242109 0)
(0.00342963 0.000272703 0)
(0.00340521 0.000307468 0)
(0.00337831 0.000345529 0)
(0.00334628 0.00038902 0)
(0.0033112 0.000435904 0)
(0.0032692 0.000489933 0)
(0.00322327 0.000546923 0)
(0.0031683 0.000613409 0)
(0.00310797 0.000681475 0)
(0.00303633 0.00076212 0)
(0.00295691 0.000841639 0)
(0.00286422 0.000937261 0)
(0.00275994 0.00102782 0)
(0.00264116 0.00113698 0)
(0.00250574 0.0012374 0)
(0.00235513 0.00135448 0)
(0.00218331 0.00146237 0)
(0.00199467 0.00157776 0)
(0.00178298 0.00168401 0)
(0.00155349 0.00178793 0)
(0.00130225 0.00187954 0)
(0.00103494 0.0019597 0)
(0.000750644 0.0020224 0)
(0.000455894 0.00206646 0)
(0.000152429 0.00208883 0)
(0.00359239 1.56841e-06 0)
(0.00359222 4.73338e-06 0)
(0.00359188 7.97196e-06 0)
(0.00359136 1.13355e-05 0)
(0.00359065 1.48718e-05 0)
(0.00358974 1.86386e-05 0)
(0.00358862 2.26964e-05 0)
(0.00358726 2.71033e-05 0)
(0.00358565 3.19256e-05 0)
(0.00358376 3.724e-05 0)
(0.00358156 4.31295e-05 0)
(0.00357901 4.96792e-05 0)
(0.00357606 5.69919e-05 0)
(0.00357267 6.51707e-05 0)
(0.00356877 7.435e-05 0)
(0.00356432 8.4648e-05 0)
(0.00355918 9.62387e-05 0)
(0.00355337 0.00010926 0)
(0.00354662 0.000123943 0)
(0.00353903 0.000140434 0)
(0.00353016 0.000159051 0)
(0.00352026 0.000179924 0)
(0.00350857 0.00020353 0)
(0.00349564 0.000229893 0)
(0.00348015 0.000259763 0)
(0.00346324 0.000292934 0)
(0.00344262 0.000330615 0)
(0.00342044 0.000372115 0)
(0.00339287 0.000419435 0)
(0.00336366 0.000470939 0)
(0.00332665 0.000529964 0)
(0.00328795 0.000593202 0)
(0.00323825 0.000666107 0)
(0.00318656 0.000742644 0)
(0.00312011 0.000831375 0)
(0.00305029 0.000922301 0)
(0.00296247 0.00102784 0)
(0.00286704 0.0011334 0)
(0.00275313 0.00125449 0)
(0.00262228 0.00137364 0)
(0.00247686 0.00150526 0)
(0.00230231 0.00163457 0)
(0.00211413 0.00176872 0)
(0.00189477 0.00189748 0)
(0.00165844 0.00202178 0)
(0.0013936 0.00213418 0)
(0.00111138 0.00223226 0)
(0.000807345 0.00231025 0)
(0.000491418 0.00236498 0)
(0.000164225 0.00239305 0)
(0.00359557 1.64161e-06 0)
(0.00359545 4.95195e-06 0)
(0.0035952 8.3376e-06 0)
(0.00359483 1.18545e-05 0)
(0.00359432 1.55541e-05 0)
(0.00359367 1.94931e-05 0)
(0.00359287 2.37386e-05 0)
(0.0035919 2.83509e-05 0)
(0.00359076 3.3402e-05 0)
(0.0035894 3.897e-05 0)
(0.00358782 4.51399e-05 0)
(0.00358598 5.20039e-05 0)
(0.00358385 5.96757e-05 0)
(0.00358141 6.82617e-05 0)
(0.00357857 7.78986e-05 0)
(0.00357534 8.87224e-05 0)
(0.00357158 0.000100909 0)
(0.00356733 0.000114614 0)
(0.00356234 0.000130086 0)
(0.00355674 0.00014748 0)
(0.00355009 0.000167147 0)
(0.0035427 0.000189224 0)
(0.00353381 0.000214233 0)
(0.00352402 0.000242205 0)
(0.00351203 0.000273985 0)
(0.00349901 0.000309318 0)
(0.00348274 0.000349632 0)
(0.00346528 0.000394028 0)
(0.00344305 0.000445043 0)
(0.00341943 0.000500394 0)
(0.00338892 0.000564728 0)
(0.00335658 0.000632954 0)
(0.00331463 0.000713683 0)
(0.00326978 0.000796422 0)
(0.00321224 0.000896953 0)
(0.00314928 0.000995087 0)
(0.00307092 0.00111851 0)
(0.00298186 0.00123187 0)
(0.0028764 0.00137873 0)
(0.00275129 0.00150729 0)
(0.00261064 0.00166988 0)
(0.00244129 0.0018176 0)
(0.00225209 0.00197877 0)
(0.00203078 0.00213086 0)
(0.00178526 0.00228046 0)
(0.00150835 0.00241622 0)
(0.00120734 0.00253536 0)
(0.000880599 0.00263064 0)
(0.000536979 0.00269761 0)
(0.000179914 0.00273211 0)
(0.00359885 1.68709e-06 0)
(0.00359878 5.09287e-06 0)
(0.00359864 8.57883e-06 0)
(0.00359843 1.21941e-05 0)
(0.00359813 1.60021e-05 0)
(0.00359776 2.00589e-05 0)
(0.00359729 2.44267e-05 0)
(0.00359673 2.91737e-05 0)
(0.00359605 3.43768e-05 0)
(0.00359526 4.01167e-05 0)
(0.00359433 4.64771e-05 0)
(0.00359324 5.35585e-05 0)
(0.00359197 6.14751e-05 0)
(0.00359051 7.03375e-05 0)
(0.0035888 8.02936e-05 0)
(0.00358685 9.14834e-05 0)
(0.00358454 0.000104094 0)
(0.00358193 0.000118294 0)
(0.0035788 0.00013433 0)
(0.00357532 0.000152386 0)
(0.00357103 0.000172823 0)
(0.00356636 0.000195808 0)
(0.00356045 0.000221867 0)
(0.00355414 0.000251104 0)
(0.00354586 0.000284333 0)
(0.00353731 0.000321443 0)
(0.00352556 0.000363764 0)
(0.00351386 0.0004107 0)
(0.00349701 0.000464501 0)
(0.00348084 0.000523543 0)
(0.00345644 0.000591717 0)
(0.0034338 0.000665379 0)
(0.00339831 0.000751323 0)
(0.00336601 0.000842149 0)
(0.00331463 0.000949554 0)
(0.00326722 0.00105973 0)
(0.00319431 0.00119182 0)
(0.00312183 0.00132273 0)
(0.00302281 0.00148001 0)
(0.00290735 0.00163252 0)
(0.0027807 0.00180814 0)
(0.00260476 0.00198399 0)
(0.00242087 0.00216954 0)
(0.00219018 0.00235275 0)
(0.00193785 0.0025319 0)
(0.00164319 0.00269824 0)
(0.00132133 0.0028454 0)
(0.000966213 0.00296496 0)
(0.000590773 0.00304956 0)
(0.000198003 0.00309348 0)
(0.00360221 1.71e-06 0)
(0.00360219 5.15696e-06 0)
(0.00360215 8.68571e-06 0)
(0.0036021 1.2352e-05 0)
(0.00360202 1.62093e-05 0)
(0.00360193 2.03203e-05 0)
(0.0036018 2.47481e-05 0)
(0.00360165 2.95627e-05 0)
(0.00360147 3.48379e-05 0)
(0.00360125 4.06586e-05 0)
(0.00360098 4.71191e-05 0)
(0.00360067 5.43099e-05 0)
(0.00360028 6.2351e-05 0)
(0.00359984 7.13617e-05 0)
(0.00359928 8.14923e-05 0)
(0.00359865 9.28857e-05 0)
(0.00359783 0.000105736 0)
(0.00359693 0.000120218 0)
(0.00359573 0.000136592 0)
(0.00359443 0.000155056 0)
(0.00359261 0.000175972 0)
(0.00359073 0.000199539 0)
(0.00358795 0.000226303 0)
(0.00358518 0.000256389 0)
(0.00358091 0.000290658 0)
(0.00357679 0.000329017 0)
(0.00357014 0.000372911 0)
(0.00356392 0.000421687 0)
(0.00355354 0.000477913 0)
(0.00354399 0.000539634 0)
(0.0035278 0.000611662 0)
(0.00351286 0.000689112 0)
(0.00348772 0.000781413 0)
(0.00346389 0.000877232 0)
(0.00342529 0.000995659 0)
(0.00338651 0.00111139 0)
(0.00332844 0.00126355 0)
(0.00326405 0.00139808 0)
(0.00317973 0.00159193 0)
(0.00307259 0.00174307 0)
(0.0029548 0.00196916 0)
(0.00279517 0.00217013 0)
(0.00261317 0.00238744 0)
(0.00238559 0.00260502 0)
(0.00212356 0.00281858 0)
(0.00181532 0.00302164 0)
(0.0014685 0.00320055 0)
(0.00108052 0.00334783 0)
(0.000662822 0.00345185 0)
(0.000222908 0.00350633 0)
(0.00360558 1.70932e-06 0)
(0.00360561 5.148e-06 0)
(0.00360568 8.66567e-06 0)
(0.00360579 1.23203e-05 0)
(0.00360593 1.61691e-05 0)
(0.00360612 2.02737e-05 0)
(0.00360634 2.46946e-05 0)
(0.00360661 2.95015e-05 0)
(0.00360692 3.47734e-05 0)
(0.00360728 4.05902e-05 0)
(0.00360769 4.70467e-05 0)
(0.00360816 5.42402e-05 0)
(0.00360867 6.22895e-05 0)
(0.00360926 7.1315e-05 0)
(0.00360987 8.1462e-05 0)
(0.00361059 9.2891e-05 0)
(0.0036113 0.000105786 0)
(0.00361215 0.000120335 0)
(0.00361291 0.000136802 0)
(0.00361388 0.000155397 0)
(0.0036146 0.000176485 0)
(0.00361565 0.000200298 0)
(0.00361612 0.000227356 0)
(0.00361716 0.000257874 0)
(0.00361698 0.000292655 0)
(0.00361785 0.000331775 0)
(0.00361631 0.000376524 0)
(0.00361668 0.000426626 0)
(0.0036125 0.000484249 0)
(0.0036118 0.000548257 0)
(0.0036028 0.000622514 0)
(0.00360002 0.000703916 0)
(0.00358251 0.00079965 0)
(0.0035758 0.000902307 0)
(0.00354391 0.00102573 0)
(0.00352953 0.0011533 0)
(0.00347503 0.00131202 0)
(0.00344337 0.00146683 0)
(0.00336061 0.00166737 0)
(0.00327674 0.00185108 0)
(0.00319888 0.00207903 0)
(0.00301433 0.00231604 0)
(0.00284669 0.0025689 0)
(0.00261233 0.00282944 0)
(0.00234579 0.00308806 0)
(0.0020172 0.00333692 0)
(0.00164072 0.00356256 0)
(0.00121229 0.00375145 0)
(0.000745967 0.00388721 0)
(0.000251343 0.00395869 0)
(0.00360891 1.67596e-06 0)
(0.00360901 5.05397e-06 0)
(0.00360918 8.51276e-06 0)
(0.00360945 1.21051e-05 0)
(0.00360981 1.58875e-05 0)
(0.00361027 1.99212e-05 0)
(0.00361084 2.4266e-05 0)
(0.00361152 2.89963e-05 0)
(0.00361233 3.41822e-05 0)
(0.00361326 3.99069e-05 0)
(0.00361434 4.62625e-05 0)
(0.00361559 5.33478e-05 0)
(0.003617 6.12805e-05 0)
(0.00361861 7.01794e-05 0)
(0.0036204 8.0195e-05 0)
(0.00362246 9.14776e-05 0)
(0.00362471 0.000104225 0)
(0.0036273 0.000118622 0)
(0.00363005 0.000134929 0)
(0.00363328 0.000153372 0)
(0.00363657 0.000174304 0)
(0.00364054 0.000197991 0)
(0.00364433 0.000224942 0)
(0.00364913 0.000255423 0)
(0.00365327 0.000290198 0)
(0.00365892 0.000329467 0)
(0.00366301 0.000374436 0)
(0.0036694 0.000425047 0)
(0.00367264 0.000483331 0)
(0.00367937 0.00054851 0)
(0.00368021 0.000624262 0)
(0.0036863 0.00070796 0)
(0.00368198 0.000806825 0)
(0.00368526 0.000913442 0)
(0.00367105 0.00104357 0)
(0.00366682 0.00117648 0)
(0.00363544 0.00135171 0)
(0.00361199 0.00150696 0)
(0.00355599 0.00176008 0)
(0.00347567 0.00189851 0)
(0.00341005 0.00223005 0)
(0.00327482 0.00251582 0)
(0.00311587 0.00278448 0)
(0.00289393 0.00309779 0)
(0.00262046 0.00340471 0)
(0.00227993 0.00371497 0)
(0.00187439 0.00399192 0)
(0.0013984 0.00422672 0)
(0.000865737 0.00439546 0)
(0.000292891 0.00448534 0)
(0.00361217 1.61895e-06 0)
(0.00361231 4.88818e-06 0)
(0.00361258 8.23252e-06 0)
(0.00361301 1.17046e-05 0)
(0.00361358 1.53631e-05 0)
(0.00361432 1.92631e-05 0)
(0.00361523 2.34703e-05 0)
(0.00361632 2.80469e-05 0)
(0.00361761 3.30695e-05 0)
(0.00361911 3.86132e-05 0)
(0.00362085 4.47699e-05 0)
(0.00362286 5.16409e-05 0)
(0.00362515 5.93331e-05 0)
(0.00362778 6.79726e-05 0)
(0.00363073 7.76984e-05 0)
(0.00363412 8.86662e-05 0)
(0.00363788 0.000101061 0)
(0.00364221 0.000115079 0)
(0.00364693 0.000130967 0)
(0.00365244 0.000148972 0)
(0.00365829 0.000169422 0)
(0.00366523 0.000192612 0)
(0.00367234 0.000219022 0)
(0.00368106 0.000248985 0)
(0.00368947 0.000283193 0)
(0.00370033 0.000322003 0)
(0.00370989 0.000366454 0)
(0.00372331 0.000416821 0)
(0.00373339 0.000474788 0)
(0.0037498 0.000540267 0)
(0.00375893 0.000616166 0)
(0.00377878 0.000701332 0)
(0.00378371 0.000801268 0)
(0.0038076 0.000911781 0)
(0.00380147 0.00104458 0)
(0.00383126 0.00118648 0)
(0.00379863 0.00136659 0)
(0.00384323 0.00154251 0)
(0.00374401 0.0018012 0)
(0.00384848 0.00199238 0)
(0.0037255 0.002252 0)
(0.003461 0.00230719 0)
(0.00336133 0.00262573 0)
(0.00318989 0.00298627 0)
(0.00295516 0.00335515 0)
(0.00263369 0.00373536 0)
(0.00221891 0.00410715 0)
(0.00171591 0.00444818 0)
(0.00113795 0.00472241 0)
(0.000502946 0.00490427 0)
(0.00361529 1.54043e-06 0)
(0.00361547 4.64703e-06 0)
(0.00361586 7.82406e-06 0)
(0.00361643 1.11256e-05 0)
(0.00361721 1.46023e-05 0)
(0.00361821 1.83113e-05 0)
(0.00361944 2.23144e-05 0)
(0.00362092 2.66682e-05 0)
(0.00362267 3.14502e-05 0)
(0.00362473 3.67275e-05 0)
(0.0036271 4.25914e-05 0)
(0.00362985 4.91378e-05 0)
(0.00363299 5.64708e-05 0)
(0.00363659 6.47102e-05 0)
(0.00364067 7.39916e-05 0)
(0.00364534 8.44712e-05 0)
(0.00365057 9.63206e-05 0)
(0.00365659 0.000109735 0)
(0.00366324 0.000124952 0)
(0.00367093 0.000142217 0)
(0.0036793 0.000161846 0)
(0.00368911 0.000184157 0)
(0.00369953 0.000209576 0)
(0.00371196 0.000238518 0)
(0.00372476 0.000271556 0)
(0.00374044 0.000309241 0)
(0.00375585 0.000352352 0)
(0.00377548 0.000401614 0)
(0.00379351 0.000458086 0)
(0.00381781 0.000522784 0)
(0.00383793 0.000597062 0)
(0.00386755 0.00068249 0)
(0.00388804 0.00078052 0)
(0.0039235 0.000894075 0)
(0.00394003 0.00102349 0)
(0.00398213 0.00117603 0)
(0.00398405 0.00134502 0)
(0.00403755 0.00155492 0)
(0.00399648 0.00176374 0)
(0.00409087 0.00207488 0)
(0.00412118 0.00229547 0)
(0.00377952 0.00246265 0)
(0.00370718 0.00283554 0)
(0.00356759 0.00324936 0)
(0.00335032 0.00368942 0)
(0.0030365 0.00413837 0)
(0.00258287 0.00460505 0)
(0.00202022 0.00503749 0)
(0.00135229 0.00538654 0)
(0.000600434 0.0056103 0)
(0.00361822 1.43554e-06 0)
(0.00361846 4.33032e-06 0)
(0.00361893 7.29459e-06 0)
(0.00361965 1.03754e-05 0)
(0.00362063 1.36224e-05 0)
(0.00362187 1.70822e-05 0)
(0.00362341 2.08149e-05 0)
(0.00362526 2.48812e-05 0)
(0.00362745 2.93446e-05 0)
(0.00363003 3.42748e-05 0)
(0.003633 3.97554e-05 0)
(0.00363645 4.58769e-05 0)
(0.00364039 5.27323e-05 0)
(0.00364493 6.04434e-05 0)
(0.00365007 6.91362e-05 0)
(0.00365598 7.89556e-05 0)
(0.00366262 9.0064e-05 0)
(0.00367025 0.000102658 0)
(0.00367874 0.000116951 0)
(0.00368856 0.000133192 0)
(0.00369936 0.000151672 0)
(0.00371197 0.000172722 0)
(0.00372557 0.000196726 0)
(0.00374175 0.000224133 0)
(0.00375872 0.000255454 0)
(0.00377944 0.000291308 0)
(0.00380034 0.000332378 0)
(0.00382684 0.000379545 0)
(0.00385204 0.000433701 0)
(0.00388588 0.000496141 0)
(0.00391531 0.000568016 0)
(0.00395841 0.000651298 0)
(0.00399089 0.000747333 0)
(0.00404551 0.000859406 0)
(0.00407755 0.000988478 0)
(0.00414609 0.0011411 0)
(0.00416963 0.00131451 0)
(0.00425324 0.00152655 0)
(0.00425313 0.0017532 0)
(0.0043426 0.00206277 0)
(0.00450615 0.00229009 0)
(0.00414185 0.00257051 0)
(0.00411229 0.00299271 0)
(0.00401576 0.00347371 0)
(0.00383563 0.00400092 0)
(0.00357288 0.00450878 0)
(0.00304951 0.00512217 0)
(0.00242271 0.00569657 0)
(0.00164402 0.00616438 0)
(0.000733737 0.0064621 0)
(0.00362094 1.30916e-06 0)
(0.00362121 3.95131e-06 0)
(0.00362177 6.65792e-06 0)
(0.00362262 9.46622e-06 0)
(0.00362378 1.24272e-05 0)
(0.00362526 1.55908e-05 0)
(0.00362707 1.89978e-05 0)
(0.00362927 2.27091e-05 0)
(0.00363187 2.67847e-05 0)
(0.00363492 3.12903e-05 0)
(0.00363846 3.63008e-05 0)
(0.00364256 4.18981e-05 0)
(0.00364725 4.81696e-05 0)
(0.00365265 5.52278e-05 0)
(0.00365879 6.31872e-05 0)
(0.00366584 7.21811e-05 0)
(0.00367378 8.2368e-05 0)
(0.00368291 9.39273e-05 0)
(0.00369314 0.000107054 0)
(0.00370493 0.000121991 0)
(0.00371801 0.000138996 0)
(0.00373322 0.000158411 0)
(0.00374987 0.000180551 0)
(0.00376946 0.00020592 0)
(0.00379054 0.000234887 0)
(0.00381576 0.000268247 0)
(0.00384225 0.000306356 0)
(0.00387469 0.000350548 0)
(0.00390768 0.000400975 0)
(0.00394932 0.00046009 0)
(0.00398985 0.000527214 0)
(0.00404313 0.000607249 0)
(0.00409182 0.000697111 0)
(0.00415963 0.000807208 0)
(0.00421585 0.00092795 0)
(0.00430137 0.00108266 0)
(0.00436147 0.00124463 0)
(0.00446709 0.00146813 0)
(0.00452153 0.00168295 0)
(0.00464202 0.00201601 0)
(0.00487342 0.00223574 0)
(0.00454306 0.00261299 0)
(0.00457551 0.0030833 0)
(0.00453929 0.00364359 0)
(0.00439743 0.00432002 0)
(0.00418316 0.00515337 0)
(0.00369734 0.00594345 0)
(0.00296034 0.00669792 0)
(0.0019637 0.00733286 0)
(0.000752531 0.00772339 0)
(0.00362338 1.16547e-06 0)
(0.0036237 3.51371e-06 0)
(0.00362434 5.91516e-06 0)
(0.0036253 8.41308e-06 0)
(0.00362662 1.10442e-05 0)
(0.0036283 1.38536e-05 0)
(0.00363038 1.68851e-05 0)
(0.00363289 2.01857e-05 0)
(0.00363586 2.38124e-05 0)
(0.00363934 2.78208e-05 0)
(0.00364339 3.22793e-05 0)
(0.00364807 3.72619e-05 0)
(0.00365345 4.28495e-05 0)
(0.00365964 4.91417e-05 0)
(0.00366668 5.62351e-05 0)
(0.00367476 6.42621e-05 0)
(0.00368391 7.33568e-05 0)
(0.00369441 8.36839e-05 0)
(0.00370622 9.54201e-05 0)
(0.00371984 0.000108789 0)
(0.00373501 0.000124021 0)
(0.00375265 0.000141444 0)
(0.00377209 0.00016133 0)
(0.00379495 0.000184163 0)
(0.00381975 0.000210273 0)
(0.00384942 0.000240421 0)
(0.00388093 0.000274928 0)
(0.00391949 0.000315066 0)
(0.00395929 0.000361027 0)
(0.00400949 0.000415041 0)
(0.0040594 0.000476794 0)
(0.00412477 0.000550461 0)
(0.00418669 0.000634235 0)
(0.00427154 0.000736441 0)
(0.00434726 0.000851223 0)
(0.00445617 0.00099618 0)
(0.00454706 0.00115473 0)
(0.00468243 0.00136618 0)
(0.0047896 0.00158609 0)
(0.004944 0.00190474 0)
(0.00524514 0.00211718 0)
(0.0049814 0.00257486 0)
(0.00509747 0.00308045 0)
(0.00515771 0.00369628 0)
(0.00512555 0.0044337 0)
(0.00507301 0.005498 0)
(0.00464139 0.00652566 0)
(0.00385955 0.00759379 0)
(0.00266046 0.00855397 0)
(0.0010781 0.0091746 0)
(0.00362551 1.00132e-06 0)
(0.00362587 3.01706e-06 0)
(0.00362657 5.08394e-06 0)
(0.00362765 7.23111e-06 0)
(0.00362911 9.49244e-06 0)
(0.00363097 1.19041e-05 0)
(0.00363327 1.45082e-05 0)
(0.00363605 1.73493e-05 0)
(0.00363934 2.04668e-05 0)
(0.00364321 2.39156e-05 0)
(0.0036477 2.77513e-05 0)
(0.00365291 3.20402e-05 0)
(0.00365888 3.68531e-05 0)
(0.00366576 4.22698e-05 0)
(0.0036736 4.83832e-05 0)
(0.0036826 5.53053e-05 0)
(0.0036928 6.31464e-05 0)
(0.00370451 7.20632e-05 0)
(0.00371772 8.21941e-05 0)
(0.00373294 9.37581e-05 0)
(0.00374998 0.000106937 0)
(0.00376975 0.000122032 0)
(0.0037917 0.00013926 0)
(0.00381739 0.000159113 0)
(0.00384562 0.000181785 0)
(0.00387907 0.000208101 0)
(0.00391535 0.000238139 0)
(0.003959 0.000273398 0)
(0.00400558 0.000313506 0)
(0.00406268 0.000361366 0)
(0.00412245 0.000415402 0)
(0.00419729 0.000481469 0)
(0.00427392 0.000555049 0)
(0.00437209 0.000648191 0)
(0.00447018 0.000749664 0)
(0.00459855 0.000884326 0)
(0.00472377 0.00102664 0)
(0.00488947 0.00122677 0)
(0.00504886 0.0014316 0)
(0.00525459 0.00173639 0)
(0.00560425 0.00192714 0)
(0.0054433 0.00244183 0)
(0.00566553 0.00296675 0)
(0.00585807 0.00362811 0)
(0.0059863 0.00445876 0)
(0.00614265 0.00569346 0)
(0.00588276 0.00703814 0)
(0.00514556 0.00856478 0)
(0.00372039 0.0100851 0)
(0.00157733 0.0111653 0)
(0.00362731 8.20893e-07 0)
(0.00362769 2.47582e-06 0)
(0.00362845 4.17047e-06 0)
(0.00362962 5.93283e-06 0)
(0.0036312 7.79213e-06 0)
(0.00363322 9.77345e-06 0)
(0.00363571 1.19107e-05 0)
(0.00363872 1.42421e-05 0)
(0.00364228 1.68023e-05 0)
(0.00364648 1.96359e-05 0)
(0.00365134 2.27883e-05 0)
(0.00365698 2.63131e-05 0)
(0.00366347 3.02695e-05 0)
(0.00367093 3.47235e-05 0)
(0.00367945 3.97544e-05 0)
(0.00368922 4.5451e-05 0)
(0.00370032 5.191e-05 0)
(0.00371307 5.92581e-05 0)
(0.00372747 6.7613e-05 0)
(0.00374406 7.71563e-05 0)
(0.0037627 8.80341e-05 0)
(0.00378431 0.000100516 0)
(0.0038084 0.000114772 0)
(0.00383659 0.00013122 0)
(0.00386772 0.000150034 0)
(0.0039046 0.000171901 0)
(0.00394486 0.000196924 0)
(0.00399328 0.000226321 0)
(0.00404543 0.000259926 0)
(0.00410927 0.000299991 0)
(0.004177 0.000345627 0)
(0.0042615 0.000401205 0)
(0.00434993 0.000464057 0)
(0.0044621 0.000542882 0)
(0.00457848 0.000630953 0)
(0.00472737 0.000745845 0)
(0.00488238 0.000872076 0)
(0.00507895 0.00104496 0)
(0.00528861 0.00123183 0)
(0.00554438 0.0015008 0)
(0.00593751 0.00165572 0)
(0.00590834 0.00220157 0)
(0.00625498 0.00271838 0)
(0.00661397 0.00339437 0)