/*--------------------------------*- C++ -*----------------------------------*\
| =========                 |                                                 |
| \\      /  F ield         | foam-extend: Open Source CFD                    |
|  \\    /   O peration     | Version:     4.0                                |
|   \\  /    A nd           | Web:         http://www.foam-extend.org         |
|    \\/     M anipulation  |                                                 |
\*---------------------------------------------------------------------------*/
FoamFile
{
    version     2.0;
    format      ascii;
    class       volScalarField;
    location    "0.0013";
    object      k;
}
// * * * * * * * * * * * * * * * * * * * * * * * * * * * * * * * * * * * * * //

dimensions      [0 2 -2 0 0 0 0];

internalField   nonuniform List<scalar> 
28770
(
2.08042e-07
5.02544e-07
7.48697e-07
9.69541e-07
1.17091e-06
1.35601e-06
1.52639e-06
1.68278e-06
1.82558e-06
1.95501e-06
2.0712e-06
2.17423e-06
2.26418e-06
2.34112e-06
2.40512e-06
2.45623e-06
2.49451e-06
2.51999e-06
2.53272e-06
2.53271e-06
2.52002e-06
2.4947e-06
2.45684e-06
2.4066e-06
2.34418e-06
2.26993e-06
2.18426e-06
2.08775e-06
1.98116e-06
1.86538e-06
1.74151e-06
1.61085e-06
1.47487e-06
1.33523e-06
1.19375e-06
1.05235e-06
9.13067e-07
7.77975e-07
6.49125e-07
5.2849e-07
4.17892e-07
3.18926e-07
2.32876e-07
1.60641e-07
1.02665e-07
5.88621e-08
2.85553e-08
1.03761e-08
2.08738e-09
1.36689e-10
6.2425e-06
1.50082e-05
2.23161e-05
2.88811e-05
3.48719e-05
4.03801e-05
4.54503e-05
5.01046e-05
5.43546e-05
5.82066e-05
6.16644e-05
6.47306e-05
6.74075e-05
6.96972e-05
7.16016e-05
7.31225e-05
7.42613e-05
7.50193e-05
7.53974e-05
7.53965e-05
7.50179e-05
7.42635e-05
7.31357e-05
7.16392e-05
6.97804e-05
6.75689e-05
6.50176e-05
6.21439e-05
5.89695e-05
5.55217e-05
5.18332e-05
4.79425e-05
4.38934e-05
3.97353e-05
3.55222e-05
3.13119e-05
2.71647e-05
2.31423e-05
1.9306e-05
1.57143e-05
1.24218e-05
9.4757e-06
6.91445e-06
4.76483e-06
3.04001e-06
1.73756e-06
8.37338e-07
2.98806e-07
5.58004e-08
2.12888e-09
4.13851e-05
0.000103824
0.000154612
0.000199839
0.000241107
0.000279068
0.000314022
0.000346114
0.00037542
0.000401983
0.000425827
0.000446969
0.000465426
0.000481211
0.000494337
0.000504817
0.000512659
0.000517873
0.000520465
0.000520441
0.000517809
0.000512582
0.000504777
0.000494426
0.000481572
0.000466283
0.000448647
0.000428783
0.000406842
0.000383013
0.000357521
0.000330632
0.00030265
0.000273916
0.000244802
0.00021571
0.000187056
0.000159267
0.000132766
0.00010796
8.52246e-05
6.4889e-05
4.72183e-05
3.23991e-05
2.05238e-05
1.15788e-05
5.43342e-06
1.82617e-06
3.01777e-07
1.05652e-08
0.000137402
0.000362216
0.000544821
0.000704907
0.000850076
0.000983372
0.00110606
0.0012187
0.00132157
0.0014148
0.00149849
0.00157269
0.00163745
0.00169282
0.00173885
0.00177557
0.00180303
0.00182124
0.00183023
0.00183002
0.00182064
0.00180213
0.00177455
0.001738
0.00169265
0.00163872
0.00157653
0.00150649
0.00142915
0.00134515
0.00125529
0.00116052
0.00106191
0.00096065
0.000858066
0.000755566
0.000654625
0.000556749
0.000463434
0.000376116
0.000296128
0.000224634
0.000162582
0.000110644
6.91753e-05
3.81788e-05
1.72585e-05
5.46823e-06
8.47841e-07
2.90424e-08
0.00032411
0.000887258
0.00135345
0.00175837
0.00212221
0.00245464
0.00275992
0.00303992
0.00329551
0.00352711
0.00373494
0.00391916
0.0040799
0.00421729
0.00433142
0.0044224
0.00449031
0.00453521
0.00455715
0.00455617
0.00453235
0.00448576
0.00441657
0.00432503
0.00421153
0.00407664
0.00392115
0.00374608
0.00355277
0.00334287
0.00311838
0.00288162
0.00263528
0.00238237
0.0021262
0.00187028
0.00161831
0.00137407
0.00114132
0.000923656
0.000724448
0.000546652
0.000392697
0.00026436
0.000162652
8.76789e-05
3.83538e-05
1.16891e-05
1.76041e-06
5.98044e-08
0.000628157
0.00176378
0.00272822
0.00356591
0.00431322
0.0049917
0.00561228
0.00618019
0.0066979
0.00716663
0.00758702
0.00795948
0.00828432
0.00856178
0.00879209
0.00897545
0.00911202
0.00920191
0.00924522
0.00924201
0.00919242
0.0090966
0.00895485
0.00876769
0.0085359
0.00826061
0.00794342
0.00758643
0.00719234
0.00676452
0.00630702
0.00582461
0.00532277
0.00480765
0.00428599
0.00376501
0.00325227
0.00275553
0.00228247
0.00184057
0.00143677
0.00107727
0.000767212
0.00051043
0.000309101
0.000163231
6.96914e-05
2.0749e-05
3.08012e-06
1.04219e-07
0.00107186
0.00306042
0.00479105
0.00630393
0.00764928
0.00886398
0.00996978
0.0109784
0.0118958
0.0127252
0.0134682
0.014126
0.0146993
0.0151885
0.0155941
0.0159165
0.016156
0.0163127
0.0163869
0.0163785
0.0162879
0.0161152
0.0158609
0.015526
0.0151118
0.0146203
0.0140543
0.0134176
0.012715
0.0119523
0.011137
0.0102774
0.0093835
0.00846615
0.00753748
0.00661044
0.00569862
0.00481595
0.00397634
0.00319331
0.00247954
0.00184638
0.00130333
0.000857347
0.000511966
0.000266
0.000111671
3.27796e-05
4.82742e-06
1.62976e-07
0.00167185
0.00482729
0.00763122
0.0101058
0.0123075
0.0142883
0.0160836
0.0177149
0.0191945
0.0205293
0.0217233
0.0227789
0.0236978
0.024481
0.0251295
0.0256439
0.0260248
0.0262723
0.0263868
0.0263683
0.0262172
0.0259337
0.0255186
0.0249734
0.0243001
0.0235019
0.0225835
0.0215507
0.0204115
0.0191754
0.0178542
0.0164619
0.0150143
0.0135294
0.0120269
0.010528
0.00905506
0.00763087
0.00627839
0.00501995
0.00387654
0.00286699
0.00200681
0.00130687
0.000771444
0.000395927
0.000164306
4.78017e-05
7.00591e-06
2.36193e-07
0.00243833
0.00709436
0.0113027
0.0150554
0.0184046
0.0214131
0.0241309
0.0265915
0.0288163
0.0308182
0.0326053
0.0341825
0.0355533
0.0367199
0.0376842
0.0384472
0.0390099
0.0393728
0.039536
0.0394998
0.0392646
0.0388307
0.0381992
0.0373721
0.0363526
0.0351454
0.0337573
0.0321973
0.0304772
0.0286117
0.0266185
0.0245187
0.0223365
0.0200993
0.0178372
0.0155826
0.0133696
0.0112332
0.00920883
0.00733062
0.00563078
0.00413782
0.00287468
0.00185616
0.00108571
0.000552178
0.000227326
6.57504e-05
9.60667e-06
3.23571e-07
0.00337477
0.00987082
0.0158227
0.021183
0.0259892
0.0303078
0.0342007
0.0377147
0.0408822
0.0437244
0.0462555
0.0484849
0.0504187
0.0520615
0.0534164
0.0544855
0.0552704
0.0557719
0.0559903
0.0559259
0.0555791
0.0549503
0.0540411
0.052854
0.0513935
0.0496663
0.047682
0.0454535
0.0429974
0.0403349
0.0374915
0.0344975
0.0313878
0.028202
0.0249835
0.0217795
0.0186393
0.015614
0.0127546
0.0101106
0.007728
0.00564678
0.00389788
0.00249943
0.00145167
0.000733425
0.000300274
8.651e-05
1.26137e-05
4.24567e-07
0.00447745
0.0131433
0.0211696
0.0284634
0.0350378
0.0409547
0.0462833
0.0510824
0.0553964
0.0592569
0.0626861
0.0656993
0.0683076
0.0705184
0.0723373
0.073768
0.0748131
0.0754738
0.075751
0.0756448
0.0751558
0.0742845
0.0730327
0.0714039
0.0694039
0.0670419
0.0643307
0.061288
0.0579366
0.0543054
0.0504296
0.0463509
0.0421177
0.0377845
0.0334118
0.0290647
0.0248121
0.0207247
0.0168728
0.0133242
0.0101406
0.00737419
0.00506349
0.00322917
0.00186562
0.000938148
0.000382664
0.000109969
1.60129e-05
5.38723e-07
0.00573588
0.0168766
0.0272842
0.0368177
0.045457
0.0532509
0.0602701
0.0665826
0.0722442
0.0772978
0.0817755
0.0857005
0.0890899
0.0919559
0.0943074
0.0961506
0.0974895
0.0983264
0.0986626
0.0984985
0.0978347
0.0966716
0.0950117
0.0928592
0.0902217
0.087111
0.083544
0.0795439
0.0751409
0.0703731
0.0652874
0.0599391
0.0543928
0.0487213
0.0430054
0.0373324
0.0317941
0.0264848
0.0214977
0.0169211
0.0128332
0.00929707
0.00635737
0.00403761
0.00232401
0.00116517
0.000474279
0.000136132
1.98109e-05
6.664e-07
0.00713317
0.0210148
0.0340729
0.0461171
0.0570865
0.0670112
0.0759563
0.0839945
0.0911915
0.0976015
0.103267
0.108222
0.11249
0.116089
0.119034
0.121334
0.122994
0.12402
0.124412
0.124171
0.1233
0.121797
0.119665
0.116911
0.113543
0.109577
0.105034
0.0999425
0.0943427
0.088283
0.0818237
0.0750363
0.0680041
0.0608214
0.0535928
0.0464311
0.0394554
0.032787
0.0265452
0.0208406
0.0157667
0.0113935
0.00776676
0.00491798
0.00282432
0.0014143
0.000575634
0.000165319
2.4064e-05
8.09288e-07
0.00864638
0.0254825
0.0414088
0.056183
0.0697021
0.0819726
0.0930452
0.102993
0.111889
0.119798
0.126773
0.132859
0.138088
0.142486
0.146074
0.148865
0.150868
0.152089
0.152531
0.152196
0.151084
0.149196
0.146537
0.143111
0.138931
0.134015
0.128389
0.122091
0.115169
0.107683
0.09971
0.0913392
0.082675
0.0738363
0.0649543
0.0561712
0.0476364
0.0395022
0.0319171
0.025016
0.018904
0.0136472
0.00928281
0.00586571
0.00336591
0.00168738
0.000688994
0.000198779
2.90087e-05
9.73549e-07
0.0102475
0.0301882
0.0491365
0.0667986
0.0830315
0.0978103
0.111166
0.123167
0.133892
0.143412
0.151794
0.159089
0.165344
0.170592
0.174859
0.178165
0.180523
0.181941
0.182425
0.181976
0.180596
0.178286
0.17505
0.170895
0.165837
0.159895
0.153104
0.145506
0.137163
0.128147
0.118552
0.108486
0.0980796
0.0874762
0.0768373
0.0663366
0.0561571
0.0464856
0.0375046
0.0293781
0.0222145
0.0160414
0.01089
0.00687033
0.00394572
0.00198648
0.000818242
0.000239356
3.53004e-05
1.13772e-06
0.0119043
0.0350277
0.0570803
0.0777204
0.0967654
0.114149
0.129887
0.144038
0.156677
0.167886
0.177737
0.186296
0.193617
0.199745
0.204712
0.208546
0.211263
0.212876
0.213391
0.212812
0.211141
0.20838
0.204533
0.199609
0.193625
0.186606
0.178591
0.169634
0.159803
0.14919
0.137902
0.126073
0.113855
0.101421
0.0889645
0.0766918
0.0648216
0.0535779
0.0431833
0.0338508
0.0285854
0.01955
0.0134469
0.00863611
0.00509917
0.00268195
0.00118651
0.000395337
7.63907e-05
3.33997e-06
0.0135805
0.0398877
0.0650503
0.0886851
0.110557
0.130573
0.148735
0.165075
0.179667
0.192597
0.203946
0.213789
0.222192
0.229209
0.234881
0.239241
0.242314
0.244114
0.24465
0.243928
0.241951
0.238721
0.234244
0.22853
0.221598
0.213478
0.204215
0.193871
0.182527
0.170289
0.157284
0.143667
0.129616
0.115334
0.101045
0.086991
0.0734247
0.0606061
0.0487921
0.0382088
0.0320857
0.0221398
0.015154
0.00970548
0.00573688
0.00302969
0.00135071
0.000454938
8.8034e-05
3.59835e-06
0.0152374
0.0446504
0.0728487
0.0994116
0.124056
0.146672
0.167221
0.185728
0.202257
0.216895
0.229729
0.240845
0.250318
0.25821
0.264573
0.269448
0.272863
0.274838
0.275386
0.274513
0.272224
0.268521
0.263412
0.256909
0.249032
0.239818
0.229315
0.217597
0.204755
0.19091
0.176209
0.160828
0.144972
0.128874
0.112788
0.0969886
0.0817633
0.0674028
0.0541915
0.0423663
0.035353
0.0245285
0.0167437
0.010719
0.00634576
0.00336066
0.00150664
0.000512628
0.000100567
4.15496e-06
0.0168346
0.0491981
0.0802812
0.109631
0.136927
0.162018
0.184852
0.205449
0.223846
0.24013
0.254397
0.266738
0.277238
0.28597
0.292993
0.298356
0.302093
0.304229
0.304779
0.303752
0.301155
0.29699
0.291267
0.283998
0.275208
0.264936
0.253239
0.240196
0.225913
0.210524
0.194195
0.177124
0.159541
0.141707
0.123907
0.106447
0.0896453
0.0738208
0.0592818
0.0462783
0.0384475
0.0267913
0.0182784
0.01171
0.00694303
0.00340013
0.00149415
0.000493558
9.09641e-05
2.67279e-06
0.018331
0.0534177
0.0871621
0.119086
0.148836
0.176216
0.201181
0.223717
0.243857
0.261681
0.277286
0.290772
0.30223
0.311742
0.319377
0.325189
0.32922
0.331499
0.332044
0.330867
0.327975
0.323373
0.317071
0.309083
0.299437
0.288176
0.275362
0.261084
0.245457
0.228631
0.210788
0.192147
0.172961
0.153519
0.134134
0.115141
0.096888
0.0797194
0.0639665
0.049897
0.0413122
0.0289462
0.0197577
0.0126756
0.00752884
0.00370172
0.00163917
0.000546815
0.00010288
3.08211e-06
0.0196863
0.0572041
0.0933219
0.127543
0.159485
0.188925
0.215781
0.240049
0.261764
0.280979
0.297791
0.312308
0.324627
0.33484
0.343021
0.349233
0.353523
0.355925
0.356459
0.35514
0.351977
0.346976
0.340148
0.331509
0.32109
0.308936
0.295116
0.279725
0.26289
0.244772
0.22557
0.205521
0.184901
0.164021
0.143222
0.122865
0.103322
0.0849618
0.0681374
0.0531312
0.0438597
0.0309218
0.0211263
0.0135761
0.00808264
0.00398533
0.00177406
0.000596491
0.000113325
3.41185e-06
0.0208631
0.0604635
0.0986117
0.134797
0.168615
0.19982
0.228296
0.254051
0.277111
0.297527
0.315382
0.330787
0.343847
0.35466
0.363309
0.369861
0.374368
0.376869
0.377388
0.375942
0.37254
0.36719
0.359904
0.350701
0.339612
0.326687
0.311998
0.295649
0.277774
0.258545
0.238176
0.216919
0.19507
0.172961
0.150954
0.129433
0.108794
0.0894241
0.0716938
0.055898
0.0460158
0.0326475
0.0223292
0.0143742
0.00858096
0.00424532
0.00190366
0.000647512
0.000125469
3.8976e-06
0.0218279
0.0631161
0.102907
0.140681
0.176015
0.208646
0.238442
0.265381
0.289522
0.310913
0.329618
0.345744
0.359404
0.370701
0.379724
0.386546
0.391225
0.393801
0.394301
0.392745
0.389144
0.383506
0.375844
0.366178
0.354542
0.340987
0.325592
0.308464
0.289744
0.269614
0.248299
0.226066
0.203225
0.180125
0.157146
0.134692
0.113174
0.0929978
0.0745459
0.0581231
0.0477234
0.0340733
0.0233314
0.0150477
0.00901093
0.00448028
0.00202827
0.000701187
0.000123236
7.17731e-06
0.0225531
0.0650985
0.106111
0.145063
0.18152
0.215207
0.245979
0.2738
0.298721
0.320821
0.340163
0.356825
0.370926
0.382576
0.391871
0.398887
0.403686
0.40631
0.40679
0.405146
0.40139
0.395533
0.387586
0.377572
0.365525
0.3515
0.335577
0.317868
0.298521
0.277723
0.255708
0.232753
0.20918
0.18535
0.161658
0.138521
0.116362
0.0955985
0.0766233
0.0597477
0.0489329
0.0351598
0.024105
0.0155755
0.009357
0.00467973
0.00214664
0.00076167
0.00014137
8.96677e-06
0.0230228
0.0663786
0.108177
0.147885
0.18506
0.219419
0.25081
0.279187
0.304593
0.327129
0.346866
0.363867
0.378242
0.390109
0.399566
0.406697
0.411562
0.414208
0.414666
0.412958
0.409096
0.40309
0.394956
0.384713
0.3724
0.358071
0.341809
0.323728
0.30398
0.282757
0.260299
0.236888
0.212854
0.188567
0.16443
0.140867
0.118312
0.0971872
0.0778911
0.0607385
0.0496106
0.0358705
0.0246201
0.0159326
0.0095963
0.00481934
0.00224628
0.000828227
0.000226452
2.15294e-05
0.0232048
0.0668771
0.108981
0.148979
0.186426
0.221034
0.252649
0.281224
0.306797
0.329472
0.349337
0.36645
0.38091
0.392839
0.402339
0.409494
0.414368
0.417006
0.417441
0.415695
0.41178
0.405708
0.397492
0.387156
0.374735
0.360286
0.343893
0.325671
0.305773
0.284395
0.261775
0.238202
0.214008
0.189564
0.165277
0.141576
0.118893
0.0976551
0.0782615
0.0610266
0.0497002
0.0361625
0.0248354
0.016084
0.00970037
0.00487953
0.00229254
0.000867906
0.000257571
3.99291e-05
0.0230927
0.0665771
0.108496
0.148308
0.185568
0.219991
0.251425
0.279827
0.305239
0.32777
0.347493
0.364472
0.378819
0.390652
0.400072
0.407162
0.411984
0.414586
0.414997
0.413241
0.40933
0.403274
0.395089
0.384795
0.372431
0.358051
0.341741
0.323615
0.303825
0.282565
0.260076
0.236641
0.212592
0.188299
0.164164
0.140613
0.118077
0.0969785
0.0777136
0.0605935
0.0491924
0.0360016
0.0247197
0.0160041
0.00964619
0.00483173
0.00225805
0.000840655
0.000231588
2.45301e-05
0.0226923
0.0654926
0.106743
0.145899
0.182521
0.216333
0.24719
0.275056
0.299991
0.322082
0.341396
0.358015
0.37206
0.383644
0.392865
0.399801
0.404516
0.407052
0.407441
0.405704
0.401851
0.395895
0.387849
0.377734
0.365587
0.351463
0.335446
0.317647
0.298217
0.277347
0.255272
0.23227
0.208667
0.184824
0.161136
0.13802
0.115899
0.0951864
0.0762716
0.0594597
0.0481255
0.0353995
0.0242839
0.0157017
0.00944164
0.00469092
0.00216167
0.000773669
0.000188581
9.40979e-06
0.022033
0.0636951
0.103833
0.141903
0.177476
0.210287
0.240204
0.267209
0.291372
0.31275
0.331414
0.347476
0.361053
0.372252
0.381167
0.387874
0.39243
0.394879
0.395247
0.393555
0.389814
0.384033
0.376226
0.366414
0.354632
0.340934
0.325401
0.308141
0.289302
0.269067
0.247663
0.225362
0.202476
0.179356
0.156383
0.13396
0.112496
0.0923925
0.0740278
0.0576983
0.0465495
0.0344088
0.0235763
0.0152167
0.00912066
0.00449129
0.00204127
0.000709181
0.000163405
7.26579e-06
0.0211242
0.061203
0.0997943
0.136358
0.17048
0.201911
0.230539
0.256378
0.279465
0.299863
0.317664
0.332984
0.345937
0.356624
0.365134
0.371538
0.375889
0.378227
0.378577
0.376957
0.373377
0.367846
0.360375
0.350986
0.339711
0.326603
0.311739
0.295223
0.277195
0.257832
0.237349
0.216006
0.1941
0.171965
0.149966
0.128485
0.107915
0.0886392
0.0710207
0.0553453
0.0445091
0.033065
0.0226289
0.0145771
0.00870856
0.00425418
0.00191311
0.000652955
0.000127675
4.09044e-06
0.0199927
0.0580762
0.0947179
0.129385
0.161684
0.19139
0.218423
0.242789
0.264535
0.283726
0.300471
0.314885
0.327075
0.337138
0.345155
0.351191
0.355296
0.357504
0.357839
0.356316
0.352942
0.347727
0.340681
0.331823
0.321185
0.308816
0.294788
0.279202
0.262187
0.24391
0.224575
0.204424
0.183736
0.162826
0.142036
0.121726
0.102266
0.0840184
0.0673276
0.0524661
0.0420594
0.03141
0.0214729
0.013807
0.00822429
0.00399121
0.00178078
0.000599794
0.000114253
3.45163e-06
0.0186713
0.0543917
0.088723
0.121146
0.151294
0.178967
0.204128
0.226771
0.246943
0.264738
0.280265
0.293633
0.304943
0.314287
0.321736
0.327351
0.331175
0.333238
0.33356
0.332154
0.329028
0.324187
0.317641
0.309409
0.299519
0.288018
0.274973
0.260476
0.244648
0.227644
0.209652
0.190897
0.171636
0.15216
0.132785
0.113846
0.0956858
0.0786433
0.063041
0.0491347
0.0392665
0.0294866
0.0201379
0.0129268
0.00768071
0.00370687
0.00164501
0.000549678
0.000103557
3.10676e-06
0.017197
0.0502411
0.0819547
0.111839
0.13956
0.164962
0.188003
0.208711
0.227139
0.243389
0.257567
0.269779
0.28012
0.288669
0.295492
0.300643
0.304157
0.306062
0.306374
0.305103
0.302254
0.297834
0.291851
0.284321
0.27527
0.264742
0.252797
0.23952
0.225022
0.209443
0.192955
0.175761
0.158096
0.140225
0.122436
0.105033
0.088332
0.0726434
0.0582662
0.0454388
0.0362114
0.0273544
0.018666
0.0119631
0.00709395
0.00340266
0.0014982
0.000496315
9.21187e-05
2.72647e-06
0.0156099
0.0457285
0.0745804
0.101695
0.126776
0.149712
0.170471
0.189088
0.205645
0.220242
0.232982
0.243962
0.253267
0.260969
0.267125
0.27178
0.274965
0.276702
0.277004
0.275879
0.273331
0.269365
0.263989
0.257216
0.249071
0.239592
0.228835
0.216874
0.20381
0.189768
0.174902
0.159394
0.143453
0.127316
0.11124
0.0955004
0.0803793
0.0661595
0.053115
0.0414679
0.0329881
0.0250889
0.0171167
0.0109567
0.00648865
0.00343649
0.00154419
0.00052861
0.000105164
4.44119e-06
0.0139516
0.0409677
0.0667863
0.0909727
0.113279
0.133612
0.151978
0.168424
0.183039
0.195924
0.207175
0.21688
0.225114
0.231939
0.237403
0.241544
0.244386
0.245948
0.246239
0.245266
0.243032
0.239539
0.234795
0.228813
0.221613
0.21323
0.203712
0.193126
0.181561
0.169125
0.155955
0.142209
0.128071
0.11375
0.0994707
0.0854754
0.0720141
0.0593394
0.0477002
0.0373074
0.0296129
0.0227506
0.0155378
0.00994114
0.00587788
0.00310875
0.00139003
0.000470211
9.14045e-05
3.74376e-06
0.0122635
0.036078
0.0587693
0.0799438
0.0994079
0.117094
0.133025
0.147274
0.159931
0.171092
0.180845
0.189267
0.196423
0.202363
0.207129
0.210749
0.213244
0.214627
0.214905
0.214083
0.212164
0.209149
0.205045
0.199862
0.193619
0.186346
0.178084
0.168893
0.158847
0.148042
0.136593
0.124637
0.112334
0.0998609
0.0874122
0.0751963
0.0634299
0.0523329
0.0421265
0.0330076
0.0260467
0.0202773
0.0138967
0.00890038
0.00525406
0.00276809
0.00122923
0.000411689
7.93596e-05
3.25548e-06
0.0105857
0.0311806
0.0507324
0.0688968
0.0855207
0.100579
0.114111
0.1262
0.136936
0.146408
0.154694
0.161859
0.167957
0.173029
0.177106
0.180211
0.18236
0.183563
0.183825
0.183148
0.181536
0.178989
0.175512
0.171115
0.165814
0.159634
0.152611
0.144794
0.136247
0.12705
0.117302
0.107117
0.096629
0.0859865
0.0753538
0.0649056
0.0548243
0.0452947
0.036502
0.0286035
0.021604
0.0155473
0.0105337
0.00663599
0.00380796
0.00191634
0.000789089
0.000230758
3.40271e-05
1.09652e-06
0.00895578
0.026393
0.0428724
0.0581039
0.0719761
0.0844969
0.0957253
0.105747
0.114649
0.122511
0.129397
0.135362
0.140447
0.144685
0.1481
0.150708
0.152521
0.153546
0.153787
0.153246
0.151923
0.14982
0.146942
0.143296
0.138896
0.133763
0.127927
0.121429
0.114321
0.10667
0.0985566
0.0900752
0.0813352
0.0724591
0.063581
0.0548441
0.0463969
0.0383889
0.0309667
0.0242601
0.0183232
0.0131977
0.00896274
0.00565737
0.00324407
0.00162564
0.000663614
0.000191453
2.79493e-05
9.38485e-07
0.00740795
0.0218248
0.0353737
0.0478207
0.0590983
0.069239
0.0783167
0.0864157
0.0936147
0.0999801
0.105565
0.110412
0.114552
0.11801
0.120802
0.122941
0.124435
0.125288
0.125504
0.125083
0.124026
0.122334
0.120011
0.117063
0.113502
0.109345
0.104616
0.0993487
0.0935851
0.0873789
0.0807947
0.0739086
0.0668078
0.0595904
0.0523632
0.0452404
0.0383402
0.0317806
0.0256759
0.0201307
0.015212
0.0109752
0.00747276
0.004727
0.00271249
0.0013576
0.000552385
0.000158614
2.30834e-05
7.75942e-07
0.00597216
0.0175736
0.0284018
0.0382773
0.0471758
0.0551493
0.062277
0.0686376
0.0742978
0.0793113
0.0837188
0.0875513
0.0908316
0.0935766
0.0957984
0.0975052
0.0987027
0.0993939
0.0995804
0.0992631
0.0984424
0.0971195
0.0952971
0.0929807
0.0901793
0.0869065
0.0831819
0.0790313
0.0744886
0.0695956
0.0644026
0.0589691
0.0533629
0.0476601
0.0419436
0.0363017
0.0308257
0.0256069
0.0207334
0.0162869
0.0123315
0.00891943
0.00609124
0.00386413
0.00222209
0.00111333
0.00045297
0.000129963
1.8902e-05
6.35292e-07
0.00467345
0.0137213
0.0220943
0.0296669
0.0364504
0.0425106
0.0479245
0.05276
0.0570706
0.0608965
0.0642672
0.0672042
0.0697229
0.0718346
0.0735475
0.074867
0.0757967
0.0763387
0.0764939
0.0762629
0.0756462
0.0746446
0.0732604
0.071498
0.0693642
0.0668698
0.0640296
0.0608637
0.0573977
0.0536634
0.049699
0.0455495
0.041266
0.0369057
0.0325308
0.0282074
0.0240039
0.0199887
0.0162279
0.0127837
0.00970875
0.00704707
0.00483133
0.00307695
0.00177572
0.000892211
0.000363705
0.000104462
1.51994e-05
5.10859e-07
0.00353077
0.0103301
0.0165554
0.0221328
0.0270999
0.0315278
0.0354847
0.0390249
0.0421881
0.0450022
0.0474869
0.049656
0.0515197
0.053085
0.054357
0.0553394
0.0560343
0.0564432
0.0565665
0.0564048
0.0559584
0.0552281
0.0542156
0.0529243
0.0513593
0.0495287
0.0474435
0.0451184
0.0425724
0.0398287
0.0369153
0.033865
0.0307149
0.0275066
0.0242851
0.021098
0.0179946
0.0150243
0.0122349
0.00967144
0.00737403
0.00537646
0.00370439
0.00237159
0.00137563
0.00069431
0.000284039
8.17731e-05
1.19111e-05
4.00406e-07
0.00255658
0.00744152
0.0118543
0.015767
0.0192336
0.0223211
0.0250845
0.0275631
0.0297837
0.0317641
0.0335162
0.0350486
0.0363671
0.0374762
0.0383791
0.0390778
0.0395739
0.0398682
0.039961
0.0398529
0.0395439
0.0390348
0.0383268
0.0374224
0.0363254
0.0350415
0.0335784
0.0319466
0.0301594
0.0282332
0.0261875
0.0240452
0.0218323
0.0195775
0.0173121
0.0150689
0.012882
0.0107854
0.0088119
0.00699282
0.00535624
0.0039263
0.00272185
0.00175425
0.00102454
0.000520445
0.000214057
6.18557e-05
9.02617e-06
3.03526e-07
0.00175631
0.00507407
0.00802139
0.0106065
0.0128885
0.0149228
0.0167487
0.0183918
0.0198679
0.0211873
0.0223568
0.023381
0.0242634
0.0250065
0.0256122
0.0260819
0.0264163
0.0266162
0.0266817
0.0266132
0.0264107
0.0260749
0.0256067
0.0250076
0.0242803
0.0234286
0.0224578
0.0213749
0.0201886
0.0189099
0.0175518
0.0161294
0.0146598
0.013162
0.0116565
0.0101649
0.00870927
0.0073119
0.00599423
0.00477653
0.00367715
0.00271198
0.0018937
0.00123064
0.000725195
0.000371675
0.000154068
4.47728e-05
6.55167e-06
2.20436e-07
0.00112783
0.00322276
0.00504613
0.00662934
0.00802536
0.00927372
0.0103987
0.0114145
0.0123294
0.0131487
0.0138758
0.0145133
0.015063
0.0155264
0.0159045
0.016198
0.0164077
0.0165338
0.0165764
0.0165358
0.0164121
0.0162058
0.0159172
0.0155477
0.0150987
0.0145726
0.0139729
0.0133037
0.0125706
0.0117804
0.010941
0.0100618
0.00915333
0.00822729
0.00729623
0.00637337
0.00547224
0.00460634
0.00378872
0.00303161
0.0023461
0.00174173
0.00122618
0.000804744
0.00047964
0.000248822
0.000104327
3.05832e-05
4.49521e-06
1.51382e-07
0.00066177
0.00186013
0.00287851
0.00375645
0.00453266
0.00523034
0.00586186
0.00643381
0.00694998
0.00741279
0.00782388
0.00818451
0.00849565
0.00875807
0.00897236
0.00913896
0.00925818
0.00933023
0.00935522
0.00933327
0.00926449
0.00914908
0.0089874
0.00878007
0.00852802
0.00823262
0.00789574
0.00751982
0.00710797
0.00666398
0.00619238
0.00569839
0.00518795
0.00466758
0.00414431
0.00362552
0.00311875
0.00263149
0.00217098
0.00174396
0.00135651
0.00101379
0.00071993
0.000477794
0.00028875
0.000152236
6.49089e-05
1.92958e-05
2.85754e-06
9.63846e-08
0.000341718
0.000936815
0.00143009
0.00185496
0.00223316
0.00257517
0.00288591
0.00316793
0.00342272
0.00365131
0.00385443
0.00403267
0.00418649
0.00431627
0.00442231
0.00450482
0.00456397
0.00459986
0.00461255
0.00460211
0.00456859
0.00451212
0.00443286
0.00433112
0.00420739
0.00406233
0.00389687
0.00371222
0.00350992
0.00329182
0.00306015
0.00281749
0.00256675
0.00231111
0.00205404
0.00179912
0.00155006
0.00131051
0.00108398
0.000873753
0.000682745
0.000513423
0.000367707
0.000246895
0.000151585
8.15791e-05
3.56371e-05
1.08432e-05
1.62825e-06
5.5091e-08
0.000144923
0.000382784
0.000576345
0.00074443
0.000895404
0.0010326
0.00115751
0.00127097
0.00137351
0.00146551
0.00154726
0.00161901
0.00168093
0.00173319
0.0017759
0.00180916
0.00183303
0.00184755
0.00185276
0.00184868
0.00183533
0.00181277
0.00178107
0.00174035
0.00169081
0.00163272
0.00156645
0.00149249
0.00141146
0.00132409
0.0012313
0.0011341
0.00103367
0.000931277
0.000828304
0.000726192
0.000626411
0.000530421
0.000439624
0.000355322
0.00027867
0.000210639
0.000151969
0.000103142
6.4345e-05
3.54551e-05
1.60069e-05
5.06321e-06
7.8231e-07
2.66567e-08
4.3669e-05
0.000109813
0.000163713
0.0002112
0.000254127
0.000293205
0.000328795
0.000361118
0.000390325
0.000416527
0.000439809
0.00046024
0.000477876
0.00049276
0.000504928
0.000514405
0.000521212
0.000525362
0.000526861
0.00052572
0.000521945
0.000515551
0.000506559
0.000495006
0.000480946
0.000464457
0.000445647
0.000424653
0.000401651
0.000376854
0.000350515
0.000322928
0.000294422
0.000265361
0.000236135
0.000207154
0.000178832
0.000151585
0.000125807
0.000101869
8.00945e-05
6.07579e-05
4.40661e-05
3.01503e-05
1.90556e-05
1.07325e-05
5.03015e-06
1.6878e-06
2.77732e-07
9.65334e-09
6.59565e-06
1.58922e-05
2.36498e-05
3.05378e-05
3.67677e-05
4.24365e-05
4.75975e-05
5.22834e-05
5.65169e-05
6.03144e-05
6.36885e-05
6.66494e-05
6.92051e-05
7.13621e-05
7.31255e-05
7.44992e-05
7.5486e-05
7.60878e-05
7.63058e-05
7.61412e-05
7.55953e-05
7.46701e-05
7.33687e-05
7.16965e-05
6.96615e-05
6.7275e-05
6.45524e-05
6.15139e-05
5.8185e-05
5.45964e-05
5.07848e-05
4.67928e-05
4.26681e-05
3.84633e-05
3.42348e-05
3.00416e-05
2.59441e-05
2.20019e-05
1.82723e-05
1.48085e-05
1.16575e-05
8.85861e-06
6.44171e-06
4.42556e-06
2.81642e-06
1.60668e-06
7.73212e-07
2.75407e-07
5.11312e-08
1.92636e-09
2.20325e-07
5.3291e-07
7.94146e-07
1.02572e-06
1.23507e-06
1.42552e-06
1.59889e-06
1.75629e-06
1.89849e-06
2.02604e-06
2.13937e-06
2.23881e-06
2.32465e-06
2.39708e-06
2.4563e-06
2.50243e-06
2.53556e-06
2.55576e-06
2.56306e-06
2.55751e-06
2.53916e-06
2.50806e-06
2.46433e-06
2.40814e-06
2.33977e-06
2.25959e-06
2.16813e-06
2.06606e-06
1.95424e-06
1.8337e-06
1.70568e-06
1.57161e-06
1.43308e-06
1.29187e-06
1.14987e-06
1.00907e-06
8.71483e-07
7.39116e-07
6.13892e-07
4.97596e-07
3.91805e-07
2.97838e-07
2.16693e-07
1.48998e-07
9.49616e-08
5.43269e-08
2.63147e-08
9.54459e-09
1.90726e-09
1.22292e-10
1.45887e-07
3.40137e-09
1.59412e-10
7.86015e-12
3.89358e-13
1.74594e-14
1.15163e-15
1e-15
1e-15
1e-15
1e-15
1e-15
1e-15
1.01595e-15
8.55377e-15
1.8226e-13
3.70506e-12
7.54841e-11
1.54264e-09
3.53509e-08
2.97083e-06
1.54601e-07
7.64938e-09
3.79064e-10
1.90346e-11
8.86823e-13
3.51102e-14
1.98096e-15
1e-15
1e-15
1e-15
1e-15
2.63419e-15
4.49386e-14
9.16607e-13
1.87874e-11
3.80937e-10
7.74021e-09
1.56218e-07
3.08824e-06
8.71873e-07
3.45315e-08
1.66001e-09
8.21727e-11
4.11513e-12
1.92727e-13
7.8426e-15
1e-15
1e-15
1e-15
1e-15
1e-15
1e-15
9.87281e-15
2.00208e-13
4.07615e-12
8.24549e-11
1.67844e-09
3.42765e-08
7.60453e-07
1.03962e-10
1.62014e-09
8.08331e-09
2.21381e-08
4.52169e-08
7.78897e-08
1.19984e-07
1.70686e-07
2.28655e-07
2.92151e-07
3.59172e-07
4.27601e-07
4.95338e-07
5.60426e-07
6.21149e-07
6.7611e-07
7.24279e-07
7.65007e-07
7.98026e-07
8.23418e-07
8.41573e-07
8.53131e-07
8.58923e-07
8.59909e-07
8.57117e-07
8.51601e-07
8.44376e-07
8.36413e-07
8.28602e-07
8.21747e-07
8.16569e-07
8.13712e-07
8.13757e-07
8.17234e-07
8.24648e-07
8.36464e-07
8.53148e-07
8.75158e-07
9.02946e-07
9.36957e-07
9.77615e-07
1.0253e-06
1.08034e-06
1.14291e-06
1.21307e-06
1.29064e-06
1.3752e-06
1.46602e-06
1.56213e-06
1.6623e-06
1.76513e-06
1.86912e-06
1.97278e-06
2.07469e-06
2.17354e-06
2.26822e-06
2.3578e-06
2.44158e-06
2.51904e-06
2.58991e-06
2.65409e-06
2.71162e-06
2.7627e-06
2.80763e-06
2.84678e-06
2.88057e-06
2.90947e-06
2.93394e-06
2.95442e-06
2.97137e-06
2.98518e-06
2.99625e-06
3.00491e-06
3.01144e-06
3.01611e-06
3.01911e-06
3.02061e-06
3.02072e-06
3.01954e-06
3.01712e-06
3.01345e-06
3.00854e-06
3.00234e-06
2.99482e-06
2.98592e-06
2.97555e-06
2.96367e-06
2.95023e-06
2.93519e-06
2.91857e-06
2.90044e-06
2.88096e-06
2.86039e-06
2.8392e-06
2.81806e-06
2.7979e-06
2.77993e-06
2.7655e-06
2.7558e-06
2.75135e-06
1.6379e-09
4.34398e-08
2.33189e-07
6.50118e-07
1.33647e-06
2.30898e-06
3.56243e-06
5.07249e-06
6.79915e-06
8.69046e-06
1.06867e-05
1.27248e-05
1.47421e-05
1.66803e-05
1.84883e-05
2.01245e-05
2.15581e-05
2.27699e-05
2.3752e-05
2.45068e-05
2.50461e-05
2.53889e-05
2.556e-05
2.55881e-05
2.55038e-05
2.53384e-05
2.51224e-05
2.48844e-05
2.46512e-05
2.44465e-05
2.42918e-05
2.42064e-05
2.42074e-05
2.43106e-05
2.45311e-05
2.48826e-05
2.53792e-05
2.60343e-05
2.68614e-05
2.78738e-05
2.90841e-05
3.05038e-05
3.21423e-05
3.40055e-05
3.60945e-05
3.84044e-05
4.09224e-05
4.36273e-05
4.64898e-05
4.94731e-05
5.25355e-05
5.56327e-05
5.87199e-05
6.17548e-05
6.46987e-05
6.75181e-05
7.01856e-05
7.26801e-05
7.49867e-05
7.70969e-05
7.90076e-05
8.07204e-05
8.22412e-05
8.35788e-05
8.47444e-05
8.57505e-05
8.66108e-05
8.7339e-05
8.79488e-05
8.84533e-05
8.88647e-05
8.91941e-05
8.94518e-05
8.96463e-05
8.97852e-05
8.98745e-05
8.99191e-05
8.99226e-05
8.98874e-05
8.98152e-05
8.9706e-05
8.95598e-05
8.93754e-05
8.91516e-05
8.88863e-05
8.85778e-05
8.82241e-05
8.78238e-05
8.73761e-05
8.68813e-05
8.63414e-05
8.57611e-05
8.51487e-05
8.45176e-05
8.38879e-05
8.32876e-05
8.27523e-05
8.23223e-05
8.20342e-05
8.1904e-05
8.22366e-09
2.36299e-07
1.43099e-06
4.23469e-06
8.93828e-06
1.56411e-05
2.42991e-05
3.47402e-05
4.66844e-05
5.97697e-05
7.35807e-05
8.76782e-05
0.000101628
0.000115024
0.000127514
0.000138808
0.000148696
0.000157045