/*--------------------------------*- C++ -*----------------------------------*\
| =========                 |                                                 |
| \\      /  F ield         | foam-extend: Open Source CFD                    |
|  \\    /   O peration     | Version:     4.0                                |
|   \\  /    A nd           | Web:         http://www.foam-extend.org         |
|    \\/     M anipulation  |                                                 |
\*---------------------------------------------------------------------------*/
FoamFile
{
    version     2.0;
    format      ascii;
    class       volScalarField;
    location    "0.0013";
    object      nut;
}
// * * * * * * * * * * * * * * * * * * * * * * * * * * * * * * * * * * * * * //

dimensions      [0 2 -1 0 0 0 0];

internalField   nonuniform List<scalar> 
28770
(
1.109e-14
2.67888e-14
3.99103e-14
5.16827e-14
6.24169e-14
7.22842e-14
8.13663e-14
8.9703e-14
9.73153e-14
1.04215e-13
1.10408e-13
1.159e-13
1.20695e-13
1.24797e-13
1.28208e-13
1.30933e-13
1.32973e-13
1.34332e-13
1.3501e-13
1.3501e-13
1.34333e-13
1.32984e-13
1.30965e-13
1.28287e-13
1.2496e-13
1.21002e-13
1.16435e-13
1.11291e-13
1.05608e-13
9.94365e-14
9.28337e-14
8.58686e-14
7.86202e-14
7.11765e-14
6.36343e-14
5.60968e-14
4.86723e-14
4.1471e-14
3.46025e-14
2.81719e-14
2.22763e-14
1.70008e-14
1.24138e-14
8.5632e-15
5.47268e-15
3.13773e-15
1.52218e-15
5.53114e-16
1.11271e-16
7.28637e-18
2.31199e-12
4.71106e-12
6.90883e-12
8.92837e-12
1.07783e-11
1.24803e-11
1.40473e-11
1.54857e-11
1.67992e-11
1.79898e-11
1.90584e-11
2.00061e-11
2.08334e-11
2.15411e-11
2.21297e-11
2.25998e-11
2.29517e-11
2.3186e-11
2.33028e-11
2.33026e-11
2.31856e-11
2.29524e-11
2.26038e-11
2.21413e-11
2.15668e-11
2.08833e-11
2.00948e-11
1.92066e-11
1.82255e-11
1.71599e-11
1.60199e-11
1.48174e-11
1.35659e-11
1.22808e-11
1.09787e-11
9.67739e-12
8.39564e-12
7.15246e-12
5.96676e-12
4.85671e-12
3.83908e-12
2.92854e-12
2.13692e-12
1.4725e-12
9.39299e-13
5.36456e-13
2.57398e-13
8.88738e-14
1.25924e-14
1.18355e-16
6.09171e-11
1.02077e-10
1.42535e-10
1.81923e-10
2.18878e-10
2.53158e-10
2.84804e-10
3.13887e-10
3.40455e-10
3.64539e-10
3.86159e-10
4.05331e-10
4.22067e-10
4.36381e-10
4.48284e-10
4.57787e-10
4.64899e-10
4.69627e-10
4.71977e-10
4.71955e-10
4.69569e-10
4.64828e-10
4.5775e-10
4.48363e-10
4.36707e-10
4.22841e-10
4.06848e-10
3.88834e-10
3.68938e-10
3.47328e-10
3.24211e-10
2.99826e-10
2.74451e-10
2.48393e-10
2.21992e-10
1.95609e-10
1.69623e-10
1.44422e-10
1.20388e-10
9.78893e-11
7.7267e-11
5.88172e-11
4.27779e-11
2.93119e-11
1.84914e-11
1.02828e-11
4.55853e-12
1.21473e-12
9.28614e-14
5.87373e-16
6.01104e-10
8.40427e-10
1.09784e-09
1.36589e-09
1.62778e-09
1.87571e-09
2.10679e-09
2.32008e-09
2.51532e-09
2.69249e-09
2.85159e-09
2.99271e-09
3.11589e-09
3.22123e-09
3.3088e-09
3.37867e-09
3.4309e-09
3.46555e-09
3.48266e-09
3.48225e-09
3.4644e-09
3.42917e-09
3.37668e-09
3.30713e-09
3.22083e-09
3.1182e-09
2.99985e-09
2.86658e-09
2.71939e-09
2.55954e-09
2.38855e-09
2.2082e-09
2.02053e-09
1.82783e-09
1.63259e-09
1.43749e-09
1.24535e-09
1.05901e-09
8.81301e-10
7.14938e-10
5.6241e-10
4.25869e-10
3.07005e-10
2.06938e-10
1.2619e-10
6.49918e-11
2.42145e-11
4.71394e-12
2.71467e-13
1.61461e-15
3.3728e-09
4.14491e-09
5.07846e-09
6.11554e-09
7.17506e-09
8.20724e-09
9.18553e-09
1.0097e-08
1.09356e-08
1.16987e-08
1.23851e-08
1.29942e-08
1.35262e-08
1.3981e-08
1.4359e-08
1.46604e-08
1.48853e-08
1.5034e-08
1.51067e-08
1.51033e-08
1.50243e-08
1.48698e-08
1.46404e-08
1.43368e-08
1.39605e-08
1.35133e-08
1.29977e-08
1.24172e-08
1.17763e-08
1.10803e-08
1.03358e-08
9.55062e-09
8.73358e-09
7.89463e-09
7.04463e-09
6.19521e-09
5.3585e-09
4.54686e-09
3.77245e-09
3.04691e-09
2.38082e-09
1.7833e-09
1.26169e-09
8.21826e-10
4.69799e-10
2.14993e-10
6.67339e-11
1.07756e-11
5.6674e-13
3.32483e-15
1.3113e-08
1.48726e-08
1.72945e-08
2.01503e-08
2.3193e-08
2.62492e-08
2.92075e-08
3.20018e-08
3.4595e-08
3.6967e-08
3.91072e-08
4.10103e-08
4.26736e-08
4.40964e-08
4.52784e-08
4.622e-08
4.69214e-08
4.73829e-08
4.76049e-08
4.75875e-08
4.73315e-08
4.68374e-08
4.61069e-08
4.51425e-08
4.39481e-08
4.25297e-08
4.08953e-08
3.90557e-08
3.70248e-08
3.48196e-08
3.2461e-08
2.99733e-08
2.73845e-08
2.47258e-08
2.20314e-08
1.93378e-08
1.66829e-08
1.41053e-08
1.16429e-08
9.33189e-09
7.20584e-09
5.29539e-09
3.63015e-09
2.24371e-09
1.17965e-09
4.80086e-10
1.31418e-10
1.94673e-11
9.92564e-13
5.79408e-15
3.95832e-08
4.28768e-08
4.79292e-08
5.42225e-08
6.11829e-08
6.83796e-08
7.55008e-08
8.23359e-08
8.87506e-08
9.46628e-08
1.00024e-07
1.04807e-07
1.08995e-07
1.1258e-07
1.15559e-07
1.1793e-07
1.19691e-07
1.20843e-07
1.21386e-07
1.21318e-07
1.20642e-07
1.19358e-07
1.1747e-07
1.14985e-07
1.11911e-07
1.08264e-07
1.04064e-07
9.93375e-08
9.41203e-08
8.84558e-08
8.23964e-08
7.60041e-08
6.93498e-08
6.25127e-08
5.55792e-08
4.86417e-08
4.17961e-08
3.514e-08
2.87706e-08
2.27838e-08
1.7275e-08
1.23454e-08
8.11164e-09
4.71368e-09
2.28532e-09
8.515e-10
2.1698e-10
3.09141e-11
1.55599e-12
9.06064e-15
9.97564e-08
1.0534e-07
1.1433e-07
1.26192e-07
1.39757e-07
1.54151e-07
1.68694e-07
1.82884e-07
1.96369e-07
2.08913e-07
2.20362e-07
2.30621e-07
2.39632e-07
2.47359e-07
2.53781e-07
2.58886e-07
2.62667e-07
2.6512e-07
2.6624e-07
2.66026e-07
2.64476e-07
2.61593e-07
2.57383e-07
2.51857e-07
2.45036e-07
2.36951e-07
2.27644e-07
2.17175e-07
2.05618e-07
1.93069e-07
1.79642e-07
1.65469e-07
1.50707e-07
1.35526e-07
1.20115e-07
1.04675e-07
8.94178e-08
7.45632e-08
6.03387e-08
4.69855e-08
3.47711e-08
2.40065e-08
1.50492e-08
8.24345e-09
3.74649e-09
1.3179e-09
3.23021e-10
4.51594e-11
2.25833e-12
1.31312e-14
2.19653e-07
2.28403e-07
2.42988e-07
2.62983e-07
2.86482e-07
3.11975e-07
3.38219e-07
3.6423e-07
3.89263e-07
4.12779e-07
4.34405e-07
4.53889e-07
4.71065e-07
4.85826e-07
4.98103e-07
5.07852e-07
5.15042e-07
5.19654e-07
5.21672e-07
5.21082e-07
5.17881e-07
5.12066e-07
5.03643e-07
4.92632e-07
4.79069e-07
4.6301e-07
4.44536e-07
4.23759e-07
4.00822e-07
3.75907e-07
3.49232e-07
3.21057e-07
2.91681e-07
2.61438e-07
2.30699e-07
1.99866e-07
1.69373e-07
1.3969e-07
1.11337e-07
8.49044e-08
6.10823e-08
4.0649e-08
2.43659e-08
1.27081e-08
5.51526e-09
1.87238e-09
4.49142e-10
6.21572e-11
3.09675e-12
1.7989e-14
4.35793e-07
4.48995e-07
4.71112e-07
5.02036e-07
5.39209e-07
5.80306e-07
6.2331e-07
6.66538e-07
7.0864e-07
7.48582e-07
7.85602e-07
8.19153e-07
8.48854e-07
8.74443e-07
8.95742e-07
9.12627e-07
9.25012e-07
9.32833e-07
9.3604e-07
9.34597e-07
9.28478e-07
9.17666e-07
9.02162e-07
8.81991e-07
8.57208e-07
8.27901e-07
7.94209e-07
7.56319e-07
7.1448e-07
6.69009e-07
6.20291e-07
5.68785e-07
5.15027e-07
4.59624e-07
4.03266e-07
3.46721e-07
2.90855e-07
2.36656e-07
1.8527e-07
1.3803e-07
9.64341e-08
6.1975e-08
3.57565e-08
1.79671e-08
7.55786e-09
2.51031e-09
5.94657e-10
8.18066e-11
4.06612e-12
2.36038e-14
7.95407e-07
8.15244e-07
8.47504e-07
8.91757e-07
9.46374e-07
1.00779e-06
1.07298e-06
1.13933e-06
1.20465e-06
1.26719e-06
1.3256e-06
1.37885e-06
1.42619e-06
1.46708e-06
1.50112e-06
1.52805e-06
1.54764e-06
1.55974e-06
1.56423e-06
1.56101e-06
1.54999e-06
1.53114e-06
1.50442e-06
1.46986e-06
1.42751e-06
1.37751e-06
1.32006e-06
1.25546e-06
1.1841e-06
1.10651e-06
1.0233e-06
9.35263e-07
8.433e-07
7.48485e-07
6.52063e-07
5.55482e-07
4.6044e-07
3.68933e-07
2.8329e-07
2.06123e-07
1.40084e-07
8.7351e-08
4.88976e-08
2.39188e-08
9.85427e-09
3.22832e-09
7.58867e-10
1.0401e-10
5.16194e-12
2.99503e-14
1.3544e-06
1.38459e-06
1.42945e-06
1.49012e-06
1.56585e-06
1.65211e-06
1.74473e-06
1.84001e-06
1.93471e-06
2.02614e-06
2.11212e-06
2.19093e-06
2.26128e-06
2.32216e-06
2.37283e-06
2.41274e-06
2.44145e-06
2.45863e-06
2.464e-06
2.45734e-06
2.43848e-06
2.40727e-06
2.36362e-06
2.30751e-06
2.23901e-06
2.15826e-06
2.06556e-06
1.96133e-06
1.84617e-06
1.72087e-06
1.58644e-06
1.44414e-06
1.2955e-06
1.14237e-06
9.86981e-07
8.32008e-07
6.80644e-07
5.36632e-07
4.04183e-07
2.87649e-07
1.90858e-07
1.16159e-07
6.35697e-08
3.05169e-08
1.24008e-08
4.0269e-09
9.41931e-10
1.28797e-10
6.38642e-12
3.70485e-14
2.17288e-06
2.22041e-06
2.28132e-06
2.3619e-06
2.46182e-06
2.57672e-06
2.70126e-06
2.8305e-06
2.96e-06
3.0859e-06
3.20502e-06
3.31474e-06
3.41297e-06
3.49809e-06
3.56881e-06
3.62415e-06
3.66331e-06
3.68565e-06
3.69063e-06
3.67781e-06
3.64681e-06
3.59733e-06
3.52915e-06
3.44213e-06
3.3363e-06
3.21181e-06
3.06901e-06
2.90851e-06
2.73117e-06
2.53819e-06
2.33115e-06
2.11206e-06
1.8835e-06
1.64862e-06
1.41135e-06
1.17641e-06
9.49413e-07
7.3672e-07
5.45015e-07
3.80488e-07
2.47624e-07
1.4801e-07
7.97103e-08
3.77859e-08
1.52222e-08
4.91723e-09
1.14691e-09
1.56602e-10
7.75887e-12
4.49925e-14
3.30751e-06
3.38529e-06
3.46778e-06
3.57313e-06
3.69905e-06
3.84512e-06
4.00465e-06
4.17137e-06
4.33949e-06
4.50392e-06
4.66024e-06
4.80476e-06
4.93442e-06
5.04676e-06
5.13976e-06
5.2118e-06
5.26156e-06
5.2879e-06
5.2899e-06
5.26672e-06
5.21767e-06
5.14215e-06
5.03969e-06
4.90998e-06
4.75288e-06
4.56853e-06
4.35735e-06
4.12013e-06
3.85812e-06
3.57313e-06
3.26763e-06
2.94486e-06
2.60905e-06
2.2655e-06
1.92079e-06
1.58281e-06
1.26059e-06
9.6385e-07
7.0197e-07
4.82504e-07
3.09554e-07
1.82826e-07
9.74364e-08
4.58439e-08
1.83969e-08
5.93761e-09
1.38599e-09
1.89383e-10
9.36893e-12
5.41246e-14
4.80114e-06
4.93135e-06
5.04381e-06
5.17883e-06
5.33405e-06
5.51276e-06
5.70859e-06
5.91418e-06
6.12249e-06
6.32711e-06
6.52234e-06
6.70326e-06
6.8657e-06
7.00615e-06
7.12168e-06
7.20984e-06
7.26855e-06
7.29602e-06
7.29069e-06
7.25119e-06
7.1763e-06
7.06496e-06
6.91629e-06
6.72967e-06
6.50472e-06
6.24147e-06
5.94041e-06
5.60261e-06
5.22989e-06
4.82497e-06
4.39171e-06
3.93528e-06
3.46244e-06
2.98176e-06
2.50366e-06
2.04031e-06
1.60507e-06
1.21138e-06
8.71006e-07
5.91916e-07
3.76111e-07
2.20681e-07
1.16888e-07
5.48353e-08
2.2053e-08
7.17125e-09
1.69427e-09
2.34545e-10
1.16086e-11
6.32515e-14
6.67101e-06
6.88839e-06
7.04379e-06
7.21539e-06
7.40536e-06
7.61666e-06
7.84804e-06
8.0914e-06
8.33867e-06
8.58221e-06
8.81505e-06
9.031e-06
9.22468e-06
9.39139e-06
9.52713e-06
9.62841e-06
9.6922e-06
9.71582e-06
9.69685e-06
9.63313e-06
9.52273e-06
9.3639e-06
9.15516e-06
8.8954e-06
8.58389e-06
8.22048e-06
7.80576e-06
7.34121e-06
6.82951e-06
6.2748e-06
5.68299e-06
5.0621e-06
4.42259e-06
3.77747e-06
3.14224e-06
2.53432e-06
1.97184e-06
1.47183e-06
1.04786e-06
7.07727e-07
5.24644e-07
2.89426e-07
1.56758e-07
7.58822e-08
3.20042e-08
1.12062e-08
2.98701e-09
5.12846e-10
3.80263e-11
2.77348e-13
8.89817e-06
9.25164e-06
9.46871e-06
9.68695e-06
9.91958e-06
1.01635e-05
1.04277e-05
1.07052e-05
1.09873e-05
1.12654e-05
1.15313e-05
1.17776e-05
1.19978e-05
1.21859e-05
1.23367e-05
1.24455e-05
1.25081e-05
1.25207e-05
1.24799e-05
1.23824e-05
1.22253e-05
1.20059e-05
1.1722e-05
1.13718e-05
1.0954e-05
1.04683e-05
9.91552e-06
9.29769e-06
8.61879e-06
7.88501e-06
7.10518e-06
6.29128e-06
5.45863e-06
4.62592e-06
3.81467e-06
3.04802e-06
2.34878e-06
1.73676e-06
1.22593e-06
8.2171e-07
6.03174e-07
3.35225e-07
1.80471e-07
8.72218e-08
3.69531e-08
1.3059e-08
3.52458e-09
6.09005e-10
4.37045e-11
2.90057e-13
1.14219e-05
1.19726e-05
1.22756e-05
1.25532e-05
1.28339e-05
1.31177e-05
1.34112e-05
1.37176e-05
1.4028e-05
1.43334e-05
1.46248e-05
1.48939e-05
1.51329e-05
1.53347e-05
1.54928e-05
1.56011e-05
1.56543e-05
1.56471e-05
1.55748e-05
1.54329e-05
1.52172e-05
1.4924e-05
1.45498e-05
1.40921e-05
1.35491e-05
1.29202e-05
1.22065e-05
1.14111e-05
1.05398e-05
9.60142e-06
8.60878e-06
7.57885e-06
6.53294e-06
5.49631e-06
4.49703e-06
3.56396e-06
2.72389e-06
1.99835e-06
1.40053e-06
9.32751e-07
6.78138e-07
3.78763e-07
2.03247e-07
9.82901e-08
4.17977e-08
1.4842e-08
4.03272e-09
7.01607e-10
5.05655e-11
3.35479e-13
1.41409e-05
1.49558e-05
1.53723e-05
1.57245e-05
1.6061e-05
1.63925e-05
1.67142e-05
1.7043e-05
1.73737e-05
1.76973e-05
1.80047e-05
1.82867e-05
1.85347e-05
1.87405e-05
1.88963e-05
1.89947e-05
1.9029e-05
1.89924e-05
1.88787e-05
1.86819e-05
1.83964e-05
1.8017e-05
1.75392e-05
1.69595e-05
1.62753e-05
1.5486e-05
1.45933e-05
1.36014e-05
1.25185e-05
1.13572e-05
1.01349e-05
8.87459e-06
7.60424e-06
6.3562e-06
5.16513e-06
4.06505e-06
3.08585e-06
2.24962e-06
1.56778e-06
1.03907e-06
7.50305e-07
4.20862e-07
2.25675e-07
1.09335e-07
4.67002e-08
1.45524e-08
3.84814e-09
6.43998e-10
4.28885e-11
1.57753e-13
1.69222e-05
1.80626e-05
1.86198e-05
1.90614e-05
1.94615e-05
1.98424e-05
2.02011e-05
2.05466e-05
2.08893e-05
2.12215e-05
2.15345e-05
2.18189e-05
2.20653e-05
2.22648e-05
2.24083e-05
2.24873e-05
2.24934e-05
2.24184e-05
2.22544e-05
2.1994e-05
2.16297e-05
2.11551e-05
2.05642e-05
1.98523e-05
1.90166e-05
1.80562e-05
1.69736e-05
1.57747e-05
1.44708e-05
1.30783e-05
1.16203e-05
1.0126e-05
8.63071e-06
7.17372e-06
5.79576e-06
4.53523e-06
3.42409e-06
2.48402e-06
1.72402e-06
1.13898e-06
8.18277e-07
4.61628e-07
2.47653e-07
1.2025e-07
5.15243e-08
1.61516e-08
4.3188e-09
7.33159e-10
4.96001e-11
1.82198e-13
1.96156e-05
2.11245e-05
2.18428e-05
2.23855e-05
2.2855e-05
2.32859e-05
2.36872e-05
2.40511e-05
2.4398e-05
2.47301e-05
2.50392e-05
2.53161e-05
2.55514e-05
2.57352e-05
2.58577e-05
2.59091e-05
2.58796e-05
2.57596e-05
2.55394e-05
2.52098e-05
2.47621e-05
2.41879e-05
2.34802e-05
2.26332e-05
2.16434e-05
2.05102e-05
1.92368e-05
1.78315e-05
1.63086e-05
1.4689e-05
1.30016e-05
1.12821e-05
9.57268e-06
7.9192e-06
6.36767e-06
4.95989e-06
3.72888e-06
2.69528e-06
1.86525e-06
1.2299e-06
8.80043e-07
4.9983e-07
2.6848e-07
1.30668e-07
5.61632e-08
1.76631e-08
4.74382e-09
8.08499e-10
5.48282e-11
2.01699e-13
2.20697e-05
2.39598e-05
2.48471e-05
2.54953e-05
2.6036e-05
2.6516e-05
2.6953e-05
2.73446e-05
2.76939e-05
2.80196e-05
2.83176e-05
2.85798e-05
2.87967e-05
2.89583e-05
2.9054e-05
2.90727e-05
2.90037e-05
2.88356e-05
2.85575e-05
2.81585e-05
2.76282e-05
2.69569e-05
2.61361e-05
2.51594e-05
2.40226e-05
2.27255e-05
2.12724e-05
1.96737e-05
1.79469e-05
1.61176e-05
1.422e-05
1.22962e-05
1.03945e-05
8.56634e-06
6.86213e-06
5.32605e-06
3.99148e-06
2.87755e-06
1.98764e-06
1.30929e-06
9.33734e-07
5.34241e-07
2.87503e-07
1.40343e-07
6.05648e-08
1.91433e-08
5.18327e-09
8.94569e-10
6.19747e-11
2.32075e-13
2.41466e-05
2.63927e-05
2.74402e-05
2.81882e-05
2.87955e-05
2.93204e-05
2.97873e-05
3.02036e-05
3.0562e-05
3.08779e-05
3.11611e-05
3.14047e-05
3.16e-05
3.17367e-05
3.18037e-05
3.17892e-05
3.16811e-05
3.14671e-05
3.11347e-05
3.06719e-05
3.00666e-05
2.9308e-05
2.83866e-05
2.72949e-05
2.60287e-05
2.4588e-05
2.29783e-05
2.12118e-05
1.93094e-05
1.73005e-05
1.52244e-05
1.31283e-05
1.10658e-05
9.09295e-06
7.26329e-06
5.6226e-06
4.20416e-06
3.02552e-06
2.08749e-06
1.37462e-06
9.77574e-07
5.63826e-07
3.0425e-07
1.49149e-07
6.47673e-08
2.06829e-08
5.68303e-09
1.00645e-09
5.93787e-11
6.01818e-13
2.5732e-05
2.82703e-05
2.94508e-05
3.02818e-05
3.09441e-05
3.15052e-05
3.19951e-05
3.24258e-05
3.27974e-05
3.3108e-05
3.33757e-05
3.36011e-05
3.37758e-05
3.38894e-05
3.39305e-05
3.38868e-05
3.37453e-05
3.34927e-05
3.31155e-05
3.26005e-05
3.19347e-05
3.11062e-05
3.01046e-05
2.89219e-05
2.75538e-05
2.60004e-05
2.42683e-05
2.23715e-05
2.03332e-05
1.81863e-05
1.59736e-05
1.37467e-05
1.15629e-05
9.4817e-06
7.55871e-06
5.8407e-06
4.36061e-06
3.1346e-06
2.16148e-06
1.42348e-06
1.00962e-06
5.87418e-07
3.18073e-07
1.56778e-07
6.86806e-08
2.22992e-08
6.28791e-09
1.15622e-09
7.11105e-11
7.58455e-13
2.67531e-05
2.94888e-05
3.07601e-05
3.16475e-05
3.23468e-05
3.29319e-05
3.34363e-05
3.38748e-05
3.42516e-05
3.45634e-05
3.48202e-05
3.50312e-05
3.51901e-05
3.52866e-05
3.53089e-05
3.52442e-05
3.50791e-05
3.47997e-05
3.43918e-05
3.38414e-05
3.31349e-05
3.22597e-05
3.12048e-05
2.9962e-05
2.85267e-05
2.68995e-05
2.50875e-05
2.3106e-05
2.09798e-05
1.87439e-05
1.64437e-05
1.41334e-05
1.18728e-05
9.72325e-06
7.74178e-06
5.97559e-06
4.45728e-06
3.20206e-06
2.20738e-06
1.45396e-06
1.02815e-06
6.03576e-07
3.27925e-07
1.6252e-07
7.18782e-08
2.3788e-08
7.00825e-09
1.41781e-09
1.75318e-10
3.90599e-12
2.71223e-05
2.99324e-05
3.1238e-05
3.21461e-05
3.28585e-05
3.34516e-05
3.39602e-05
3.44001e-05
3.47767e-05
3.50885e-05
3.53403e-05
3.55443e-05
3.56959e-05
3.57847e-05
3.57987e-05
3.57251e-05
3.55502e-05
3.52599e-05
3.48398e-05
3.42756e-05
3.35535e-05
3.26606e-05
3.15858e-05
3.03207e-05
2.88609e-05
2.72069e-05
2.53661e-05
2.33543e-05
2.11969e-05
1.89297e-05
1.65991e-05
1.426e-05
1.19732e-05
9.80063e-06
7.79972e-06
6.01776e-06
4.48717e-06
3.22273e-06
2.22138e-06
1.46329e-06
1.03096e-06
6.10576e-07
3.32349e-07
1.65225e-07
7.35044e-08
2.45697e-08
7.4646e-09
1.65515e-09
2.66446e-10
2.02093e-11
2.68142e-05
2.95639e-05
3.08412e-05
3.17307e-05
3.24298e-05
3.30134e-05
3.3515e-05
3.395e-05
3.43226e-05
3.46301e-05
3.48823e-05
3.50887e-05
3.52432e-05
3.53352e-05
3.53531e-05
3.52841e-05
3.51147e-05
3.48311e-05
3.4419e-05
3.38644e-05
3.31537e-05
3.22743e-05
3.12152e-05
2.99684e-05
2.85291e-05
2.68981e-05
2.50826e-05
2.3098e-05
2.09692e-05
1.87313e-05
1.64298e-05
1.41188e-05
1.18583e-05
9.7095e-06
7.72933e-06
5.96485e-06
4.44848e-06
3.19523e-06
2.20238e-06
1.45053e-06
1.01763e-06
6.07169e-07
3.30279e-07
1.64007e-07
7.27968e-08
2.40267e-08
7.15369e-09
1.49259e-09
1.88311e-10
5.35271e-12
2.58535e-05
2.84172e-05
2.96084e-05
3.04428e-05
3.11044e-05
3.16622e-05
3.21466e-05
3.25703e-05
3.2934e-05
3.32363e-05
3.34952e-05
3.37119e-05
3.38779e-05
3.3983e-05
3.40157e-05
3.39637e-05
3.3814e-05
3.35533e-05
3.3168e-05
3.2645e-05
3.19711e-05
3.11345e-05
3.01249e-05
2.89344e-05
2.75585e-05
2.59979e-05
2.4259e-05
2.23561e-05
2.03127e-05
1.81619e-05
1.59465e-05
1.37183e-05
1.15347e-05
9.45491e-06
7.53441e-06
5.8197e-06
4.34335e-06
3.12116e-06
2.15163e-06
1.41667e-06
9.89696e-07
5.93793e-07
3.22097e-07
1.59189e-07
7.0043e-08
2.25522e-08
6.42388e-09
1.20167e-09
1.15023e-10
8.02615e-13
2.43235e-05
2.66031e-05
2.7664e-05
2.84158e-05
2.90216e-05
2.95412e-05
3.00002e-05
3.04066e-05
3.07542e-05
3.1058e-05
3.13288e-05
3.15603e-05
3.17435e-05
3.18683e-05
3.19235e-05
3.18974e-05
3.17779e-05
3.15525e-05
3.12088e-05
3.07346e-05
3.0118e-05
2.93481e-05
2.84153e-05
2.73125e-05
2.60355e-05
2.45844e-05
2.2965e-05
2.119e-05
1.92802e-05
1.72657e-05
1.51857e-05
1.30876e-05
1.10252e-05
9.05432e-06
7.22816e-06
5.59216e-06
4.17907e-06
3.00592e-06
2.07307e-06
1.36465e-06
9.49277e-07
5.72308e-07
3.09354e-07
1.52013e-07
6.62344e-08
2.08816e-08
5.77206e-09
1.02863e-09
9.33814e-11
6.0954e-13
2.22899e-05
2.42182e-05
2.51202e-05
2.5772e-05
2.63102e-05
2.67834e-05
2.72106e-05
2.75904e-05
2.79261e-05
2.8237e-05
2.85203e-05
2.87678e-05
2.89702e-05
2.91174e-05
2.91988e-05
2.92036e-05
2.91206e-05
2.89388e-05
2.86469e-05
2.82341e-05
2.769e-05
2.70048e-05
2.61703e-05
2.51799e-05
2.40298e-05
2.272e-05
2.12551e-05
1.96457e-05
1.79099e-05
1.60735e-05
1.41711e-05
1.22448e-05
1.0343e-05
8.51726e-06
6.8174e-06
5.28718e-06
3.95936e-06
2.8524e-06
1.96907e-06
1.29642e-06
8.98306e-07
5.44234e-07
2.93267e-07
1.43396e-07
6.20043e-08
1.92816e-08
5.24027e-09
9.09585e-10
6.40366e-11
2.50461e-13
1.98653e-05
2.14131e-05
2.21459e-05
2.26915e-05
2.31576e-05
2.35806e-05
2.3971e-05
2.43215e-05
2.46532e-05
2.49695e-05
2.52625e-05
2.55234e-05
2.57426e-05
2.59106e-05
2.60175e-05
2.60534e-05
2.60086e-05
2.58732e-05
2.56378e-05
2.52929e-05
2.48298e-05
2.42401e-05
2.3517e-05
2.26547e-05
2.165e-05
2.05025e-05
1.92158e-05
1.77986e-05
1.62653e-05
1.46377e-05
1.29446e-05
1.12222e-05
9.51266e-06
7.86175e-06
6.31514e-06
4.91409e-06
3.69092e-06
2.66545e-06
1.84317e-06
1.21457e-06
8.38678e-07
5.10962e-07
2.74715e-07
1.33846e-07
5.75849e-08
1.77585e-08
4.77968e-09
8.15558e-10
5.53758e-11
2.04064e-13
1.71866e-05
1.8363e-05
1.89332e-05
1.93768e-05
1.97726e-05
2.0145e-05
2.04923e-05
2.08237e-05
2.11511e-05
2.14674e-05
2.17641e-05
2.20321e-05
2.22622e-05
2.24455e-05
2.25729e-05
2.2636e-05
2.26263e-05
2.25355e-05
2.23557e-05
2.20792e-05
2.1699e-05
2.12082e-05
2.06012e-05
1.98734e-05
1.9022e-05
1.80466e-05
1.69499e-05
1.57383e-05
1.44234e-05
1.30222e-05
1.1558e-05
1.00605e-05
8.56484e-06
7.11043e-06
5.73765e-06
4.48435e-06
3.38171e-06
2.45058e-06
1.69914e-06
1.12164e-06
7.72212e-07
4.73545e-07
2.54214e-07
1.23543e-07
5.29724e-08
1.62396e-08
4.35151e-09
7.39304e-10
4.99764e-11
1.83657e-13
1.44046e-05
1.525e-05
1.56774e-05
1.60303e-05
1.63622e-05
1.66854e-05
1.69957e-05
1.7311e-05
1.76273e-05
1.79359e-05
1.82278e-05
1.84941e-05
1.87264e-05
1.89166e-05
1.90568e-05
1.91398e-05
1.91585e-05
1.91065e-05
1.89772e-05
1.87647e-05
1.84634e-05
1.80681e-05
1.75744e-05
1.69788e-05
1.62791e-05
1.54749e-05
1.45681e-05
1.35634e-05
1.24695e-05
1.12992e-05
1.00705e-05
8.80653e-06
7.53558e-06
6.28993e-06
5.10395e-06
4.01118e-06
3.04073e-06
2.21381e-06
1.54098e-06
1.02026e-06
7.00839e-07
4.33086e-07
2.32268e-07
1.12624e-07
4.81492e-08
1.46411e-08
3.8853e-09
6.54109e-10
4.39348e-11
1.61141e-13
1.16708e-05
1.22454e-05
1.25567e-05
1.28343e-05
1.31103e-05
1.33863e-05
1.36695e-05
1.3964e-05
1.42617e-05
1.45536e-05
1.48311e-05
1.5086e-05
1.53106e-05
1.54981e-05
1.56418e-05
1.57358e-05
1.57746e-05
1.5753e-05
1.56661e-05
1.55095e-05
1.5279e-05
1.49708e-05
1.45817e-05
1.4109e-05
1.35513e-05
1.29083e-05
1.21812e-05
1.13735e-05
1.04914e-05
9.54427e-06
8.54519e-06
7.51148e-06
6.46466e-06
5.43002e-06
4.43546e-06
3.50937e-06
2.67786e-06
1.96155e-06
1.37275e-06
9.12998e-07
6.26679e-07
3.90879e-07
2.09605e-07
1.01409e-07
4.31918e-08
1.53479e-08
4.19333e-09
7.38192e-10
5.43962e-11
3.65116e-13
9.12075e-06
9.49151e-06
9.71462e-06
9.93234e-06
1.01609e-05
1.0398e-05
1.06536e-05
1.09213e-05
1.11927e-05
1.14594e-05
1.17133e-05
1.19475e-05
1.21552e-05
1.23307e-05
1.24689e-05
1.2565e-05
1.26149e-05
1.26147e-05
1.25609e-05
1.24502e-05
1.22798e-05
1.20471e-05
1.17497e-05
1.13859e-05
1.09549e-05
1.04563e-05
9.89125e-06
9.26216e-06
8.57333e-06
7.8313e-06
7.0453e-06
6.22758e-06
5.39373e-06
4.5625e-06
3.75532e-06
2.99499e-06
2.30371e-06
1.7005e-06
1.19853e-06
8.02341e-07
5.50355e-07
3.48e-07
1.86873e-07
9.02708e-08
3.8299e-08
1.35696e-08
3.67349e-09
6.35473e-10
4.55265e-11
3.01776e-13
6.8596e-06
7.08865e-06
7.24834e-06
7.41934e-06
7.60601e-06
7.81204e-06
8.03684e-06
8.27258e-06
8.51135e-06
8.74572e-06
8.96887e-06
9.17477e-06
9.35813e-06
9.51436e-06
9.63948e-06
9.73003e-06
9.78299e-06
9.79565e-06
9.76559e-06
9.69064e-06
9.56883e-06
9.39846e-06
9.1781e-06
8.90671e-06
8.5837e-06
8.2091e-06
7.78369e-06
7.30926e-06
6.78875e-06
6.22663e-06
5.62913e-06
5.00456e-06
4.36361e-06
3.71943e-06
3.08748e-06
2.48495e-06
1.92954e-06
1.43766e-06
1.02223e-06
6.90109e-07
4.71365e-07
3.03703e-07
1.63785e-07
7.91134e-08
3.34243e-08
1.17614e-08
3.1589e-09
5.44761e-10
3.93463e-11
2.63008e-13
4.95242e-06
5.0901e-06
5.20563e-06
5.34028e-06
5.49317e-06
5.66826e-06
5.85944e-06
6.05947e-06
6.26145e-06
6.45908e-06
6.64682e-06
6.81985e-06
6.9741e-06
7.10616e-06
7.21313e-06
7.29259e-06
7.34249e-06
7.36103e-06
7.34662e-06
7.2979e-06
7.21365e-06
7.09282e-06
6.93457e-06
6.73834e-06
6.50387e-06
6.23132e-06
5.92134e-06
5.57523e-06
5.19504e-06
4.78376e-06
4.34549e-06
3.88568e-06
3.41129e-06
2.93103e-06
2.45536e-06
1.99633e-06
1.567e-06
1.18036e-06
8.4773e-07
5.76315e-07
3.65777e-07
2.13884e-07
1.13064e-07
5.29649e-08
2.1283e-08
6.91804e-09
1.6339e-09
2.2612e-10
1.11898e-11
6.09614e-14
3.42224e-06
3.50463e-06
3.58943e-06
3.69481e-06
3.81939e-06
3.96327e-06
4.11982e-06
4.28278e-06
4.44646e-06
4.60584e-06
4.75664e-06
4.89524e-06
5.0187e-06
5.1246e-06
5.211e-06
5.27631e-06
5.3192e-06
5.33857e-06
5.33346e-06
5.30305e-06
5.24665e-06
5.16366e-06
5.05365e-06
4.91635e-06
4.75172e-06
4.55998e-06
4.34169e-06
4.09781e-06
3.82976e-06
3.53956e-06
3.22986e-06
2.90415e-06
2.5668e-06
2.22327e-06
1.88021e-06
1.54543e-06
1.2278e-06
9.36696e-07
6.81071e-07
4.67926e-07
3.00044e-07
1.76804e-07
9.4077e-08
4.42157e-08
1.77309e-08
5.72034e-09
1.33494e-09
1.82404e-10
9.02678e-12
5.21751e-14
2.25495e-06
2.30531e-06
2.36805e-06
2.44895e-06
2.54844e-06
2.66228e-06
2.78514e-06
2.91205e-06
3.03862e-06
3.16108e-06
3.27632e-06
3.38181e-06
3.47555e-06
3.55596e-06
3.62182e-06
3.67217e-06
3.70622e-06
3.72336e-06
3.72303e-06
3.7048e-06
3.66829e-06
3.61321e-06
3.53935e-06
3.44663e-06
3.33511e-06
3.20502e-06
3.05683e-06
2.89125e-06
2.70926e-06
2.51222e-06
2.30185e-06
2.08034e-06
1.85038e-06
1.61527e-06
1.37898e-06
1.14625e-06
9.22586e-07
7.1411e-07
5.27171e-07
3.6753e-07
2.38912e-07
1.42576e-07
7.66931e-08
3.63186e-08
1.46194e-08
4.72009e-09
1.10059e-09
1.50251e-10
7.44271e-12
4.31386e-14
1.40954e-06
1.44153e-06
1.48788e-06
1.54913e-06
1.62501e-06
1.71097e-06
1.80281e-06
1.89679e-06
1.9897e-06
2.07891e-06
2.16231e-06
2.23825e-06
2.30549e-06
2.36309e-06
2.41035e-06
2.44673e-06
2.47184e-06
2.48532e-06
2.48692e-06
2.47642e-06
2.45363e-06
2.41842e-06
2.37072e-06
2.31054e-06
2.23796e-06
2.1532e-06
2.05661e-06
1.9487e-06
1.83015e-06
1.70186e-06
1.56495e-06
1.42078e-06
1.27098e-06
1.11749e-06
9.62617e-07
8.09043e-07
6.59917e-07
5.18847e-07
3.89815e-07
2.7687e-07
1.83397e-07
1.11441e-07
6.09087e-08
2.92058e-08
1.1857e-08
3.84775e-09
8.9961e-10
1.22961e-10
6.0934e-12
3.53191e-14
8.30008e-07
8.51023e-07
8.84496e-07
9.29447e-07
9.84518e-07
1.04607e-06
1.11102e-06
1.17674e-06
1.24105e-06
1.30226e-06
1.35904e-06
1.41043e-06
1.45574e-06
1.49446e-06
1.52624e-06
1.55081e-06
1.56799e-06
1.57762e-06
1.57957e-06
1.57376e-06
1.56011e-06
1.53857e-06
1.50912e-06
1.4718e-06
1.42669e-06
1.37397e-06
1.31388e-06
1.24677e-06
1.17309e-06
1.09343e-06
1.00848e-06
9.19094e-07
8.2625e-07
7.31079e-07
6.34871e-07
5.39099e-07
4.45443e-07
3.55832e-07
2.72463e-07
1.97761e-07
1.34118e-07
8.34762e-08
4.66556e-08
2.27913e-08
9.37945e-09
3.07025e-09
7.21269e-10
9.88022e-11
4.8997e-12
2.84013e-14
4.55882e-07
4.69877e-07
4.92925e-07
5.24545e-07
5.62254e-07
6.03663e-07
6.4671e-07
6.89694e-07
7.31278e-07
7.7046e-07
8.06516e-07
8.38942e-07
8.67392e-07
8.91636e-07
9.11517e-07
9.2693e-07
9.37798e-07
9.44062e-07
9.45675e-07
9.42602e-07
9.34817e-07
9.22306e-07
9.05078e-07
8.83165e-07
8.56638e-07
8.25608e-07
7.90236e-07
7.50744e-07
7.07418e-07
6.60613e-07
6.10758e-07
5.58357e-07
5.03985e-07
4.48292e-07
3.91992e-07
3.35872e-07
2.80796e-07
2.27719e-07
1.77721e-07
1.32035e-07
9.20171e-08
5.90083e-08
3.39816e-08
1.70481e-08
7.16197e-09
2.37643e-09
5.62506e-10
7.73272e-11
3.83964e-12
2.22606e-14
2.30299e-07
2.39583e-07
2.54849e-07
2.75416e-07
2.99388e-07
3.25203e-07
3.51585e-07
3.77539e-07
4.02332e-07
4.25448e-07
4.46542e-07
4.65389e-07
4.81848e-07
4.95833e-07
5.07288e-07
5.16181e-07
5.22489e-07
5.26193e-07
5.2728e-07
5.2574e-07
5.21566e-07
5.14758e-07
5.05326e-07
4.93296e-07
4.78712e-07
4.61641e-07
4.42181e-07
4.2046e-07
3.96643e-07
3.70934e-07
3.43578e-07
3.14858e-07
2.85097e-07
2.54651e-07
2.23907e-07
1.93278e-07
1.63197e-07
1.3412e-07
1.06538e-07
8.0992e-08
5.81042e-08
3.85711e-08
2.30706e-08
1.20104e-08
5.20455e-09
1.76478e-09
4.22927e-10
5.84754e-11
2.90962e-12
1.68745e-14
1.04799e-07
1.10731e-07
1.20178e-07
1.32446e-07
1.46355e-07
1.60996e-07
1.75671e-07
1.89873e-07
2.03259e-07
2.15609e-07
2.26788e-07
2.36717e-07
2.45351e-07
2.52668e-07
2.58656e-07
2.63307e-07
2.6662e-07
2.68591e-07
2.69216e-07
2.68496e-07
2.66429e-07
2.63018e-07
2.58271e-07
2.52202e-07
2.44837e-07
2.36211e-07
2.26377e-07
2.15402e-07
2.03373e-07
1.90397e-07
1.76599e-07
1.62128e-07
1.47149e-07
1.31846e-07
1.16416e-07
1.01064e-07
8.60032e-08
7.14464e-08
5.76078e-08
4.47072e-08
3.29826e-08
2.27085e-08
1.42009e-08
7.76263e-09
3.52189e-09
1.23717e-09
3.02893e-10
4.2298e-11
2.1119e-12
1.22552e-14
4.16527e-08
4.51556e-08
5.04823e-08
5.7022e-08
6.41913e-08
7.15406e-08
7.87491e-08
8.56068e-08
9.19858e-08
9.78135e-08
1.03051e-07
1.0768e-07
1.11692e-07
1.15085e-07
1.17859e-07
1.20016e-07
1.21556e-07
1.22481e-07
1.2279e-07
1.22483e-07
1.21562e-07
1.20029e-07
1.17888e-07
1.15145e-07
1.11814e-07
1.07911e-07
1.0346e-07
9.84941e-08
9.30518e-08
8.7183e-08
8.09462e-08
7.44092e-08
6.76487e-08
6.07489e-08
5.38003e-08
4.68973e-08
4.01358e-08
3.36106e-08
2.74131e-08
2.16301e-08
1.63453e-08
1.16456e-08
7.63143e-09
4.42447e-09
2.14102e-09
7.96513e-10
2.0271e-10
2.88427e-11
1.44891e-12
8.41612e-15
1.38149e-08
1.56854e-08
1.82474e-08
2.12271e-08
2.4373e-08
2.75041e-08
3.05064e-08
3.33151e-08
3.58971e-08
3.82367e-08
4.03281e-08
4.21697e-08
4.37623e-08
4.51074e-08
4.62068e-08
4.7062e-08
4.7674e-08
4.80436e-08
4.81713e-08
4.80574e-08
4.77026e-08
4.71077e-08
4.62745e-08
4.52062e-08
4.39076e-08
4.23856e-08
4.06498e-08
3.87128e-08
3.65904e-08
3.43021e-08
3.1871e-08
2.93238e-08
2.66909e-08
2.40054e-08
2.13031e-08
1.86213e-08
1.59979e-08
1.34703e-08
1.10741e-08
8.84208e-09
6.80328e-09
4.98335e-09
3.40643e-09
2.10025e-09
1.10198e-09
4.47749e-10
1.224e-10
1.81039e-11
9.2084e-13
5.35851e-15
3.55604e-09
4.37644e-09
5.36605e-09
6.45148e-09
7.55017e-09
8.61022e-09
9.60485e-09
1.05222e-08
1.13578e-08
1.21107e-08
1.27813e-08
1.33706e-08
1.38796e-08
1.43092e-08
1.46603e-08
1.49336e-08
1.51295e-08
1.52483e-08
1.52903e-08
1.52556e-08
1.51445e-08
1.49572e-08
1.46944e-08
1.4357e-08
1.39468e-08
1.34658e-08
1.29172e-08
1.2305e-08
1.16342e-08
1.0911e-08
1.01428e-08
9.33809e-09
8.50645e-09
7.65848e-09
6.80554e-09
5.95952e-09
5.13252e-09
4.33652e-09
3.58294e-09
2.88229e-09
2.24377e-09
1.6749e-09
1.1814e-09
7.67533e-10
4.37836e-10
2.00036e-10
6.20069e-11
9.9959e-12
5.24193e-13
3.06279e-15
6.34007e-10
8.88151e-10
1.16136e-09
1.44248e-09
1.71458e-09
1.96961e-09
2.2048e-09
2.41959e-09
2.61419e-09
2.78898e-09
2.94441e-09
3.08085e-09
3.19864e-09
3.29805e-09
3.3793e-09
3.44258e-09
3.48799e-09
3.51562e-09
3.52552e-09
3.51775e-09
3.49235e-09
3.44942e-09
3.38909e-09
3.3116e-09
3.21733e-09
3.10678e-09
2.98068e-09
2.83994e-09
2.68573e-09
2.51948e-09
2.3429e-09
2.15793e-09
1.9668e-09
1.77194e-09
1.57596e-09
1.38161e-09
1.19168e-09
1.00893e-09
8.36022e-10
6.7541e-10
5.29254e-10
3.99336e-10
2.86966e-10
1.92907e-10
1.17378e-10
6.03552e-11
2.24584e-11
4.36479e-12
2.50485e-13
1.48198e-15
6.42789e-11
1.07965e-10
1.50925e-10
1.92266e-10
2.30697e-10
2.65981e-10
2.98203e-10
3.27494e-10
3.53971e-10
3.77728e-10
3.98839e-10
4.17365e-10
4.33357e-10
4.46854e-10
4.57888e-10
4.66483e-10
4.72655e-10
4.76418e-10
4.77778e-10
4.76742e-10
4.73319e-10
4.67521e-10
4.59366e-10
4.48889e-10
4.36139e-10
4.21186e-10
4.04128e-10
3.8509e-10
3.6423e-10
3.41743e-10
3.17857e-10
2.9284e-10
2.66989e-10
2.40636e-10
2.14132e-10
1.8785e-10
1.62166e-10
1.37455e-10
1.14078e-10
9.23662e-11
7.26159e-11
5.50727e-11
3.99221e-11
2.72774e-11
1.71685e-11
9.53118e-12
4.22019e-12
1.12269e-12
8.54625e-14
5.36678e-16
2.44278e-12
4.98857e-12