/*--------------------------------*- C++ -*----------------------------------*\
| =========                 |                                                 |
| \\      /  F ield         | foam-extend: Open Source CFD                    |
|  \\    /   O peration     | Version:     4.0                                |
|   \\  /    A nd           | Web:         http://www.foam-extend.org         |
|    \\/     M anipulation  |                                                 |
\*---------------------------------------------------------------------------*/
FoamFile
{
    version     2.0;
    format      ascii;
    class       volScalarField;
    location    "0.0013";
    object      omega;
}
// * * * * * * * * * * * * * * * * * * * * * * * * * * * * * * * * * * * * * //

dimensions      [0 0 -1 0 0 0 0];

internalField   nonuniform List<scalar> 
28770
(
1.87595e+07
1.87595e+07
1.87595e+07
1.87595e+07
1.87595e+07
1.87595e+07
1.87595e+07
1.87595e+07
1.87595e+07
1.87595e+07
1.87595e+07
1.87595e+07
1.87595e+07
1.87595e+07
1.87595e+07
1.87595e+07
1.87595e+07
1.87595e+07
1.87595e+07
1.87595e+07
1.87595e+07
1.87595e+07
1.87595e+07
1.87595e+07
1.87595e+07
1.87595e+07
1.87595e+07
1.87595e+07
1.87595e+07
1.87595e+07
1.87595e+07
1.87595e+07
1.87595e+07
1.87595e+07
1.87595e+07
1.87595e+07
1.87595e+07
1.87595e+07
1.87595e+07
1.87595e+07
1.87595e+07
1.87595e+07
1.87595e+07
1.87595e+07
1.87595e+07
1.87595e+07
1.87595e+07
1.87595e+07
1.87595e+07
1.87595e+07
2.70006e+06
3.18573e+06
3.23008e+06
3.23475e+06
3.23538e+06
3.23549e+06
3.23552e+06
3.23553e+06
3.23554e+06
3.23554e+06
3.23554e+06
3.23554e+06
3.23554e+06
3.23554e+06
3.23554e+06
3.23554e+06
3.23554e+06
3.23554e+06
3.23554e+06
3.23554e+06
3.23554e+06
3.23555e+06
3.23555e+06
3.23555e+06
3.23555e+06
3.23555e+06
3.23555e+06
3.23555e+06
3.23555e+06
3.23556e+06
3.23556e+06
3.23556e+06
3.23556e+06
3.23556e+06
3.23557e+06
3.23557e+06
3.23557e+06
3.23558e+06
3.23559e+06
3.23559e+06
3.23561e+06
3.23564e+06
3.2357e+06
3.23588e+06
3.23647e+06
3.23895e+06
3.25309e+06
3.36214e+06
4.43129e+06
1.79872e+07
679367
1.01712e+06
1.08473e+06
1.09848e+06
1.10156e+06
1.10235e+06
1.10259e+06
1.10267e+06
1.1027e+06
1.10272e+06
1.10272e+06
1.10273e+06
1.10273e+06
1.10273e+06
1.10273e+06
1.10273e+06
1.10273e+06
1.10273e+06
1.10273e+06
1.10273e+06
1.10273e+06
1.10273e+06
1.10273e+06
1.10274e+06
1.10274e+06
1.10274e+06
1.10274e+06
1.10274e+06
1.10274e+06
1.10274e+06
1.10274e+06
1.10274e+06
1.10275e+06
1.10275e+06
1.10276e+06
1.10276e+06
1.10277e+06
1.10279e+06
1.10282e+06
1.10288e+06
1.10299e+06
1.10323e+06
1.1038e+06
1.10532e+06
1.10991e+06
1.12604e+06
1.19192e+06
1.50335e+06
3.24975e+06
1.79872e+07
228583
430990
496267
516078
522231
524266
524997
525284
525407
525464
525492
525507
525515
525520
525523
525525
525526
525527
525528
525529
525529
525530
525531
525532
525533
525534
525535
525537
525539
525542
525546
525551
525559
525570
525587
525613
525655
525727
525852
526083
526534
527473
529573
534672
548185
587440
712735
1.16001e+06
3.12319e+06
1.79872e+07
96095.1
214059
266508
287525
295776
299082
300464
301072
301355
301495
301568
301607
301630
301643
301652
301657
301660
301663
301665
301667
301668
301669
301671
301672
301674
301677
301680
301684
301689
301696
301706
301720
301741
301772
301818
301891
302008
302203
302540
303145
304285
306539
311248
321674
346215
407822
574728
1.08477e+06
3.10621e+06
1.79872e+07
47903.5
118593
157751
176965
185971
190166
192152
193120
193609
193866
194006
194085
194132
194160
194178
194190
194198
194203
194207
194211
194214
194216
194219
194223
194227
194231
194238
194246
194258
194273
194295
194326
194372
194439
194540
194697
194947
195354
196040
197234
199390
203435
211345
227493
262028
340004
530302
1.06584e+06
3.10319e+06
1.79872e+07
27078.6
71377.1
99961.1
116261
125023
129629
132049
133336
134036
134426
134650
134782
134862
134912
134944
134966
134980
134991
134998
135005
135010
135015
135021
135027
135034
135043
135055
135071
135093
135122
135163
135222
135307
135431
135617
135901
136343
137050
138208
140157
143533
149561
160675
181885
224024
312390
514662
1.06035e+06
3.10247e+06
1.79872e+07
16759.3
45825.9
66747.5
80083
88063.7
92690.4
95341.9
96864
97746.9
98267.3
98580
98771.9
98892.4
98969.7
99020.6
99054.9
99078.7
99095.9
99109
99119.5
99128.6
99137.4
99146.5
99156.9
99169.3
99185
99205.3
99232.3
99268.7
99318.7
99388.1
99485.9
99625.7
99828.7
100128
100578
101267
102341
104053
106840
111487
119426
133350
158534
205911
300424
508655
1.05851e+06
3.10226e+06
1.79872e+07
11100.8
31060.8
46515.5
57248.4
64243.4
68637.4
71346.8
73007.4
74027.9
74660.4
75057.4
75310.3
75474.3
75582.5
75655.4
75705.7
75741.2
75767.2
75787.2
75803.4
75817.7
75831.4
75845.8
75862.1
75881.7
75906.3
75938.1
75980.2
76036.7
76113.7
76220
76368.5
76578.6
76879.9
77318.1
77965.2
78935.6
80415.5
82711.7
86339.7
92183.4
101794
117979
146061
196855
294907
506133
1.05781e+06
3.10218e+06
1.79872e+07
7743.97
21984.2
33585.9
42194.2
48198.7
52227.4
54869.5
56583
57691
58409.6
58879.1
59189
59396.2
59536.7
59633.7
59701.9
59751
59787.6
59816.1
59839.6
59860.4
59880.5
59901.7
59925.7
59954.6
59990.7
60037.2
60098.3
60180
60290.6
60441.9
60651.2
60944.1
61358.8
61953.1
62815.6
64084.5
65977.4
68843.1
73249.1
80137.7
91113.8
109012
139111
192075
292165
504953
1.05749e+06
3.10214e+06
1.79872e+07
5629.13
16121.9
24978.7
31918.3
37023.2
40638
43135.2
44835.6
45985.5
46762.4
47288.8
47647.9
47895.1
48067.2
48188.7
48276
48340.1
48388.7
48427
48459.1
48487.8
48515.8
48545.3
48578.8
48618.9
48669
48733.2
48817.1
48928.6
49078.2
49281.2
49559.3
49943.9
50481.3
51240.1
52323.4
53887.9
56174.6
59560.2
64642.2
72389.5
84420.2
103553
135006
189321
290599
504257
1.05729e+06
3.10211e+06
1.79872e+07
4235
12188.8
19087.2
24707.8
29030.3
32232.1
34544
36185.9
37341
38150.3
38717.3
39116
39398
39599.3
39744.7
39851.2
39931
39992.4
40041.6
40083.3
40121.2
40158.3
40197.5
40242.1
40295.4
40361.7
40446.2
40556.1
40701
40893.9
41153.3
41505
41986
42649.4
43572.7
44870.2
46711.8
49353.7
53188
58825.3
67239.5
80037.3
100006
132307
187409
289346
503518
1.05694e+06
3.10203e+06
1.79872e+07
3282.81
9464.38
14935.6
19525.5
23188.7
26006.4
28118.8
29674.7
30808
31628.2
32220.5
32648.7
32959.5
33186.5
33354
33479.2
33574.6
33649.3
33710.2
33762.4
33810.2
33857.5
33907.7
33964.7
34032.8
34117
34223.9
34362.1
34542.9
34781.9
35100.2
35527.5
36105.2
36892.3
37972.8
39468.5
41557.6
44504
48705.4
54773.3
63672.1
76978
97437.4
130154
185540
287621
501900
1.05566e+06
3.10148e+06
1.79872e+07
2614.17
7527.42
11941
15723.7
18843.2
21318.6
23234.3
24690.4
25783.9
26598.5
27203.1
27651.4
27984.6
28233.3
28420.5
28563
28673.6
28761.6
28834.4
28897.6
28956.1
29014.4
29076.5
29147
29230.9
29334.3
29465
29632.8
29850.9
30136.9
30514.5
31016.4
31687.8
32591.6
33816.4
35488.4
37789
40983.7
45468
51846.2
61068.6
74645.8
95270.4
127950
182961
284185
497112
1.04961e+06
3.09627e+06
1.79872e+07
2134.4
6121.69
9741.94
12898.4
15566.3
17742.5
19473.4
20825.8
21868.9
22666.3
23272.9
23733.1
24082.6
24348.9
24553
24711.3
24836.1
24937
25021.6
25096
25165.6
25235.2
25309.8
25394.3
25494.8
25618.2
25773.2
25971.2
26226.7
26559.1
26994.4
27567.7
28326.7
29337.1
30690
32513
34987.3
38374.2
43059
49632.1
59063.7
72690.6
93165.9
125290
178920
277006
482947
1.02051e+06
3.04089e+06
1.79872e+07
1784.48
5085.04
8103.62
10771.5
13066.9
14986.7
16550.3
17801.3
18789.3
19562.1
20162.9
20628.5
20989.1
21268.9
21487.3
21659.4
21797.2
21910.2
22006.2
22091.7
22172.3
22253.5
22340.7
22439.6
22556.8
22700.1
22879.5
23107.1
23398.9
23776
24265.8
24905.3
25744
26849
28312.4
30261.3
32873.7
36402.2
41211
47830.2
54485.2
67547.6
85780.9
113809
159328
239328
397222
770868
2.00889e+06
1.20425e+07
1526.21
4311.42
6870.02
9155.11
11145.3
12847.3
14263.5
15420
16352.2
17096.3
17686.3
18152.1
18519.4
18809.3
19039.2
19223.1
19372.5
19496.7
19603.5
19699.6
19791
19883.6
19983.2
20096.2
20229.8
20392.7
20595.5
20851.5
21177.8
21596.5
22136.5
22835.9
23745.1
24932.1
26488.6
28540.1
31260.7
34896
39799.9
46499.1
53194.7
66044.6
83969.2
111273
155248
231999
383227
747020
2.0143e+06
1.24056e+07
1334.06
3729.37
5934.44
7919.2
9666.26
11181.2
12468.7
13539.4
14418.1
15132.1
15708.2
16170.7
16541.2
16838.2
17077.2
17271
17430.5
17564.8
17681.5
17787.5
17889.2
17992.6
18104.2
18230.7
18380
18561.4
18786.3
19068.8
19426.8
19883.5
20468.5
21220.6
22191
23447.3
25080.4
27213.7
30017.1
33729.2
38693.6
45420.8
52132.5
64759.5
82381
109055
151820
226429
373605
730647
1.98885e+06
1.23852e+07
1190.49
3289.58
5222.45
6972.01
8525.46
9883.7
11059.6
12054.7
12884.2
13568.7
14129.5
14586.5
14957.8
15259.5
15505.4
15707.3
15875.4
16018.5
16144.1
16259.2
16370.3
16483.9
16606.6
16745.7
16909.6
17108.1
17353.2
17659.7
18046.3
18536.6
19161
19958.6
20980.6
22294.3
23989.1
26185.9
29050.4
32814.7
37812.4
44538.4
51242.5
63658.1
80994.6
107102
148672
233647
388278
766396
2.12095e+06
1.69429e+07
1083.25
2957.37
4681.15
6247.49
7647.71
8880.78
9958.91
10888.2
11673.8
12330.9
12876.4
13326.6
13697.1
14001.6
14252.6
14461
14636.3
14786.9
14920.3
15043.5
15163.1
15285.8
15418.6
15569.1
15746.1
15959.9
16223
16550.8
16962.3
17481.7
18139.7
18975.6
20040.2
21400.2
23143.4
25388.2
28296
32092.9
37103.2
43808.3
50486.8
62704.6
79779.5
105410
146122
229186
379543
745834
2.07419e+06
1.69162e+07
1003.61
2707.95
4272.44
5697.57
6978.11
8113.27
9109.61
9980.8
10728.9
11361.8
11893
12336.3
12704.9
13011
13265.7
13479.2
13660.3
13817.2
13957.2
14087.4
14214.3
14345
14486.6
14647.1
14835.5
15062.6
15341.2
15687.1
16119.7
16663.6
17349.4
18216.6
19315.5
20711.8
22492
24771.7
27708.4
31522.5
36529.9
43199.7
49838.1
61864.6
78688.5
103897
143913
225630
373974
737775
2.06691e+06
1.69156e+07
945.328
2523.54
3968.74
5287.14
6476.24
7535.81
8470.13
9290.72
10006.2
10618.5
11137.3
11574.2
11940.5
12247.3
12504.6
12721.9
12907.6
13069.6
13215
13350.9
13484
13621.4
13770.4
13939.2
14137.2
14375.3
14666.8
15027.6
15477.5
16041.1
16749.3
17641.2
18766.7
20190.7
21998.1
24302
27256.5
31076.4
36069.8
42693.5
49281.5
61110
77666
102422
141682
221766
367269
723826
2.02451e+06
1.67946e+07
903.977
2391.43
3750.24
4990.76
6112.57
7116.06
8004.82
8786.42
9473.25
10069.1
10577.9
11009.3
11373.5
11680.5
11939.6
12159.7
12348.9
12514.7
12664.4
12804.7
12942.7
13085.4
13240.2
13415.6
13621.2
13868
14169.6
14542
15005.4
15584.2
16309.3
17219.8
18365.1
19809.2
21635.6
23955.5
26919.6
30737.8
35710.7
42283
48818.2
60432.3
76684.9
100890
139128
216618
356900
696691
2.07543e+06
1.1926e+07
876.46
2302.72
3602.97
4790.42
5866.08
6830.85
7688.05
8443.88
9108.08
9690.14
10191.9
10619.4
10982
11289
11549.2
11771.2
11962.7
12131.3
12284
12427.6
12569.1
12715.6
12874.6
13054.9
13265.9
13519
13827.8
14208.6
14681.5
15271
16008.2
16931.6
18090.5
19548.2
21387
23716.5
26684.8
30497.8
35449.5
41973.1
48466.6
59854.7
75784.5
99347.4
136239
209861
341392
658759
1.98803e+06
1.18224e+07
860.565
2250.97
3516.78
4672.87
5721.13
6662.81
7501.12
8241.73
8892.79
9464.61
9961.64
10386.9
10748.5
11055.4
11316.3
11539.4
11732.4
11902.6
12057.1
12202.7
12346.4
12495.2
12656.9
12840
13054.4
13311.4
13624.7
14010.6
14489.2
15085.3
15829.7
16760.9
17927.8
19393.4
21239.3
23573.8
26543.5
30351.4
35286.7
41774.4
48252.2
59430
75078.5
98034.9
133508
202596
320520
584157
1.29166e+06
5.51189e+06
855.561
2234.27
3488.74
4634.45
5673.6
6607.57
7439.56
8175.09
8821.91
9389.75
9884.93
10309.7
10671
10977.8
11238.9
11462.4
11655.8
11826.6
11981.7
12128
12272.4
12422
12584.5
12768.7
12984.2
13242.5
13557.2
13944.8
14425.4
15023.7
15770.4
16704.2
17873.9
19342
21190.2
23526.3
26496.2
30302
35231
41705.2
48207.6
59226.9
74727
97346.3
131970
198600
307121
524367
966692
1.97578e+06
861.208
2251.98
3517.9
4673.96
5722.14
6663.69
7501.86
8242.33
8893.23
9464.89
9961.86
10387.2
10748.7
11055.6
11316.5
11539.5
11732.5
11902.7
12057.2
12202.8
12346.4
12495.2
12656.9
12840
13054.4
13311.4
13624.6
14010.5
14489.1
15085.2
15829.5
16760.7
17927.7
19393.3
21239.1
23573.6
26543.3
30351
35286.1
41773.5
48340
59294.3
74845
97582.1
132508
201098
315648
563219
1.22982e+06
4.58273e+06
877.729
2304.68
3605.15
4792.55
5868.02
6832.54
7689.45
8444.99
9108.84
9690.67
10192.4
10619.8
10982.4
11289.3
11549.5
11771.4
11963
12131.5
12284.2
12427.8
12569.2
12715.6
12874.7
13054.9
13265.8
13518.9
13827.7
14208.5
14681.3
15270.8
16008
16931.4
18090.3
19547.9
21386.7
23716.1
26684.3
30497.1
35448.4
41971.4
48626.6
59615.9
75393.1
98635.2
134798
208003
336505
643829
1.63951e+06
1.17239e+07
905.831
2394.27
3753.36
4993.8
6115.32
7118.42
8006.76
8787.88
9474.23
10069.9
10578.6
11009.9
11374.1
11681
11940
12160.1
12349.2
12515
12664.6
12804.9
12942.9
13085.4
13240.2
13415.6
13621.1
13867.9
14169.4
14541.8
15005.1
15583.9
16309
17219.5
18364.8
19808.8
21635.2
23954.9
26918.8
30736.8
35709.3
42280.7
49036.9
60122.8
76211.4
100101
137703
215083
353647
689442
1.74987e+06
1.19201e+07
947.701
2527.15
3972.68
5290.93
6479.62
7538.67
8472.42
9292.29
10007.3
10619.5
11138.2
11574.9
11941.1
12247.8
12505.1
12722.3
12908
13069.9
13215.3
13351.1
13484.2
13621.5
13770.4
13939.1
14137.1
14375.1
14666.6
15027.3
15477.2
16040.8
16748.9
17640.7
18766.2
20190.2
21997.5
24301.3
27255.6
31075.2
36068.1
42691
49547.9
60755.1
77161.7
101656
140451
220634
365079
717860
1.99378e+06
1.63316e+07
1006.41
2712.18
4276.99
5701.89
6981.91
8116.4
9111.95
9982.48
10730.3
11362.9
11894
12337.1
12705.6
13011.6
13266.3
13479.6
13660.7
13817.5
13957.5
14087.6
14214.5
14345.1
14486.6
14647
14835.4
15062.4
15340.9
15686.7
16119.3
16663.1
17348.9
18216
19314.9
20711.2
22491.4
24770.9
27707.5
31521.3
36528.2
43197.3
50149.6
61472.3
78164.2
103156
142820
224749
372572
735440
2.06322e+06
1.69145e+07
1086.39
2962.03
4686.1
6252.12
7651.68
8883.94
9961.24
10890.1
11675.2
12332.1
12877.4
13327.5
13697.8
14002.2
14253.2
14461.5
14636.8
14787.3
14920.6
15043.7
15163.3
15285.9
15418.6
15569
15746
15959.7
16222.7
16550.4
16961.8
17481.2
18139.1
18975
20039.6
21399.5
23142.7
25387.4
28295.1
32091.7
37101.6
43806.2
50849.4
62267.8
79216.3
104634
144995
228262
378032
743507
2.07212e+06
1.69161e+07
1193.85
3294.49
5227.57
6976.7
8529.39
9886.65
11061.8
12056.5
12885.6
13569.9
14130.5
14587.3
14958.5
15260.1
15505.9
15707.8
15875.8
16018.8
16144.3
16259.4
16370.5
16484
16606.6
16745.6
16909.4
17107.8
17352.8
17659.3
18045.8
18536.1
19160.4
19958
20979.9
22293.6
23988.4
26185.2
29049.6
32813.7
37811.1
44536.6
51668.6
63161.7
80363.9
106222
147333
232405
385609
758766
2.09672e+06
1.69198e+07
1337.52
3734.33
5939.5
7923.71
9669.89
11183.9
12470.9
13541.1
14419.4
15133.2
15709.1
16171.5
16541.9
16838.8
17077.7
17271.4
17430.9
17565.1
17681.7
17787.7
17889.3
17992.7
18104.2
18230.6
18379.8
18561.2
18786
19068.4
19426.4
19883
20467.9
21220
22190.3
23446.6
25079.7
27213
30016.3
33728.2
38692.5
45419.5
52639.5
64185.9
81661.8
108045
150229
223906
368249
716088
1.93329e+06
1.21638e+07
1529.66
4316.24
6874.82
9159.24
11148.5
12849.7
14265.5
15421.5
16353.4
17097.3
17687.1
18152.8
18520
18809.8
19039.6
19223.5
19372.8
19497
19603.7
19699.7
19791.1
19883.6
19983.2
20096.1
20229.6
20392.5
20595.2
20851.1
21177.4
21596
22136
22835.3
23744.5
24931.5
26487.9
28539.4
31260
34895.2
39799
46498.2
53806.9
65375.3
83146.4
110126
153474
229096
378395
739938
2.00772e+06
1.24058e+07
1787.79
5089.55
8107.96
10775.1
13069.7
14988.9
16552
17802.7
18790.3
19562.9
20163.6
20629
20989.5
21269.3
21487.6
21659.7
21797.4
21910.4
22006.4
22091.8
22172.4
22253.5
22340.6
22439.5
22556.6
22699.9
22879.2
23106.7
23398.5
23775.5
24265.3
24904.8
25743.4
26848.4
28311.8
30260.7
32873.1
36401.6
41210.4
47829.6
55258
66766.9
84846.8
112502
157193
235353
389132
755724
2.01695e+06
1.23779e+07
2137.48
6125.74
9745.69
12901.3
15568.6
17744.3
19474.8
20826.8
21869.7
22667
23273.3
23733.5
24082.9
24349.1
24553.2
24711.5
24836.3
24937.1
25021.7
25096
25165.6
25235.2
25309.7
25394.2
25494.6
25618
25773
25970.9
26226.3
26558.7
26994
27567.2
28326.2
29336.6
30689.5
32512.5
34986.8
38373.7
43058.5
49631.7
59063.3
72690.2
93165.6
125290
178920
277005
482947
1.02051e+06
3.04089e+06
1.79872e+07
2616.93
7530.89
11944
15725.8
18844.9
21320
23235.3
24691.2
25784.4
26599
27203.5
27651.7
27984.8
28233.4
28420.6
28563.1
28673.7
28761.7
28834.4
28897.6
28956.1
29014.3
29076.4
29146.8
29230.7
29334.1
29464.8
29632.6
29850.7
30136.6
30514.1
31016
31687.4
32591.2
33816
35487.9
37788.6
40983.3
45467.6
51845.9
61068.3
74645.6
95270.2
127949
182961
284185
497112
1.04961e+06
3.09627e+06
1.79872e+07
3285.19
9467.2
14937.9
19527.1
23190
26007.4
28119.5
29675.3
30808.3
31628.4
32220.7
32648.8
32959.6
33186.6
33354
33479.2
33574.6
33649.3
33710.1
33762.3
33810.2
33857.4
33907.7
33964.6
34032.7
34116.8
34223.7
34361.9
34542.7
34781.6
35099.9
35527.2
36104.9
36891.9
37972.4
39468.2
41557.3
44503.7
48705.2
54773.1
63671.9
76977.9
97437.3
130154
185540
287621
501900
1.05566e+06
3.10148e+06
1.79872e+07
4236.94
12191
19088.8
24709
29031.1
32232.7
34544.4
36186.2
37341.2
38150.4
38717.3
39116
39398
39599.3
39744.6
39851.2
39930.9
39992.3
40041.6
40083.3
40121.1
40158.2
40197.5
40242
40295.3
40361.5
40446.1
40556
40700.8
40893.7
41153.1
41504.8
41985.7
42649.1
43572.5
44869.9
46711.5
49353.4
53187.8
58825.2
67239.3
80037.2
100006
132307
187409
289346
503518
1.05694e+06
3.10203e+06
1.79872e+07
5630.61
16123.3
24979.5
31918.8
37023.6
40638.3
43135.4
44835.7
45985.6
46762.4
47288.8
47647.9
47895
48067.1
48188.6
48275.9
48340.1
48388.6
48427
48459
48487.7
48515.7
48545.2
48578.7
48618.8
48668.9
48733.1
48817.1
48928.5
49078.1
49281.1
49559.1
49943.7
50481.1
51239.9
52323.2
53887.7
56174.5
59560.1
64642.1
72389.4
84420.1
103553
135006
189321
290599
504257
1.05729e+06
3.10211e+06
1.79872e+07
7744.93
21984.8
33586.1
42194.3
48198.8
52227.4
54869.5
56583
57691
58409.5
58879
59188.9
59396.1
59536.6
59633.6
59701.8
59750.9
59787.5
59816
59839.5
59860.3
59880.5
59901.7
59925.7
59954.5
59990.6
60037.1
60098.3
60180
60290.5
60441.8
60651.1
60944
61358.7
61953
62815.5
64084.4
65977.3
68843
73249
80137.6
91113.7
109012
139111
192075
292165
504953
1.05749e+06
3.10214e+06
1.79872e+07
11101.2
31060.3
46514.9
57248
64243.1
68637.3
71346.7
73007.3
74027.8
74660.3
75057.3
75310.2
75474.2
75582.4
75655.3
75705.6
75741.1
75767.1
75787.1
75803.4
75817.7
75831.4
75845.8
75862.1
75881.7
75906.3
75938.1
75980.2
76036.7
76113.7
76220
76368.5
76578.6
76879.9
77318.1
77965.1
78935.6
80415.5
82711.6
86339.7
92183.4
101794
117979
146061
196855
294907
506133
1.05781e+06
3.10218e+06
1.79872e+07
16758.8
45823.5
66745.9
80082.1
88063.2
92690.1
95341.7
96863.8
97746.8
98267.2
98579.9
98771.8
98892.2
98969.6
99020.5
99054.8
99078.7
99095.9
99108.9
99119.4
99128.6
99137.3
99146.5
99156.8
99169.3
99185
99205.3
99232.3
99268.7
99318.7
99388.1
99485.9
99625.7
99828.7
100128
100578
101267
102341
104053
106840
111487
119426
133350
158534
205911
300424
508655
1.05851e+06
3.10226e+06
1.79872e+07
27077.1
71370
99958.4
116259
125023
129629
132048
133336
134036
134426
134650
134782
134862
134912
134944
134966
134980
134991
134998
135005
135010
135015
135021
135027
135034
135043
135055
135071
135093
135122
135163
135222
135307
135431
135617
135901
136343
137050
138208
140157
143533
149561
160675
181885
224024
312390
514662
1.06035e+06
3.10247e+06
1.79872e+07
47902.7
118590
157749
176964
185971
190166
192152
193120
193609
193865
194006
194085
194132
194160
194178
194190
194198
194203
194207
194211
194214
194216
194219
194223
194227
194231
194238
194246
194258
194273
194295
194326
194372
194439
194540
194697
194947
195354
196040
197234
199390
203435
211345
227493
262028
340004
530302
1.06584e+06
3.10319e+06
1.79872e+07
96094.8
214059
266507
287524
295776
299082
300464
301072
301355
301495
301568
301607
301630
301643
301651
301657
301660
301663
301665
301667
301668
301669
301671
301672
301674
301677
301680
301684
301689
301696
301706
301720
301741
301772
301818
301891
302008
302203
302540
303145
304285
306539
311248
321674
346215
407822
574728
1.08477e+06
3.10621e+06
1.79872e+07
228583
430990
496267
516078
522231
524266
524997
525284
525407
525464
525492
525507
525515
525520
525523
525525
525526
525527
525528
525529
525529
525530
525531
525532
525533
525534
525535
525537
525539
525542
525546
525551
525559
525570
525587
525613
525655
525727
525852
526083
526534
527473
529573
534672
548185
587440
712735
1.16001e+06
3.12319e+06
1.79872e+07
679367
1.01712e+06
1.08473e+06
1.09848e+06
1.10156e+06
1.10235e+06
1.10259e+06
1.10267e+06
1.1027e+06
1.10272e+06
1.10272e+06
1.10273e+06
1.10273e+06
1.10273e+06
1.10273e+06
1.10273e+06
1.10273e+06
1.10273e+06
1.10273e+06
1.10273e+06
1.10273e+06
1.10273e+06
1.10273e+06
1.10274e+06
1.10274e+06
1.10274e+06
1.10274e+06
1.10274e+06
1.10274e+06
1.10274e+06
1.10274e+06
1.10274e+06
1.10275e+06
1.10275e+06
1.10276e+06
1.10276e+06
1.10277e+06
1.10279e+06
1.10282e+06
1.10288e+06
1.10299e+06
1.10323e+06
1.1038e+06
1.10532e+06
1.10991e+06
1.12604e+06
1.19192e+06
1.50335e+06
3.24975e+06
1.79872e+07
2.70006e+06
3.18573e+06
3.23008e+06
3.23475e+06
3.23538e+06
3.23549e+06
3.23552e+06
3.23553e+06
3.23554e+06
3.23554e+06
3.23554e+06
3.23554e+06
3.23554e+06
3.23554e+06
3.23554e+06
3.23554e+06
3.23554e+06
3.23554e+06
3.23554e+06
3.23554e+06
3.23554e+06
3.23555e+06
3.23555e+06
3.23555e+06
3.23555e+06
3.23555e+06
3.23555e+06
3.23555e+06
3.23555e+06
3.23556e+06
3.23556e+06
3.23556e+06
3.23556e+06
3.23556e+06
3.23557e+06
3.23557e+06
3.23557e+06
3.23558e+06
3.23559e+06
3.23559e+06
3.23561e+06
3.23564e+06
3.2357e+06
3.23588e+06
3.23647e+06
3.23895e+06
3.25309e+06
3.36214e+06
4.43129e+06
1.79872e+07
1.87595e+07
1.87595e+07
1.87595e+07
1.87595e+07
1.87595e+07
1.87595e+07
1.87595e+07
1.87595e+07
1.87595e+07
1.87595e+07
1.87595e+07
1.87595e+07
1.87595e+07
1.87595e+07
1.87595e+07
1.87595e+07
1.87595e+07
1.87595e+07
1.87595e+07
1.87595e+07
1.87595e+07
1.87595e+07
1.87595e+07
1.87595e+07
1.87595e+07
1.87595e+07
1.87595e+07
1.87595e+07
1.87595e+07
1.87595e+07
1.87595e+07
1.87595e+07
1.87595e+07
1.87595e+07
1.87595e+07
1.87595e+07
1.87595e+07
1.87595e+07
1.87595e+07
1.87595e+07
1.87595e+07
1.87595e+07
1.87595e+07
1.87595e+07
1.87595e+07
1.87595e+07
1.87595e+07
1.87595e+07
1.87595e+07
1.87595e+07
6.64493e+07
6.76663e+07
6.76661e+07
6.76661e+07
6.7666e+07
6.7666e+07
6.7666e+07
6.7666e+07
6.7666e+07
6.7666e+07
6.7666e+07
6.7666e+07
6.7666e+07
6.7666e+07
6.7666e+07
6.76661e+07
6.7666e+07
6.7666e+07
6.7666e+07
6.76637e+07
3.10469e+06
3.316e+06
3.32433e+06
3.32455e+06
3.32456e+06
3.32456e+06
3.32456e+06
3.32456e+06
3.32456e+06
3.32456e+06
3.32456e+06
3.32456e+06
3.32456e+06
3.32456e+06
3.32456e+06
3.32456e+06
3.32455e+06
3.32449e+06
3.3223e+06
3.25295e+06
1.15729e+07
1.195e+07
1.19517e+07
1.19517e+07
1.19517e+07
1.19517e+07
1.19517e+07
1.19517e+07
1.19517e+07
1.19517e+07
1.19517e+07
1.19517e+07
1.19517e+07
1.19517e+07
1.19517e+07
1.19517e+07
1.19517e+07
1.19517e+07
1.19513e+07
1.19093e+07
1.87595e+07
1.87595e+07
1.87595e+07
1.87595e+07
1.87595e+07
1.87595e+07
1.87595e+07
1.87595e+07
1.87595e+07
1.87595e+07
1.87595e+07
1.87595e+07
1.87595e+07
1.87595e+07
1.87595e+07
1.87595e+07
1.87595e+07
1.87595e+07
1.87595e+07
1.87595e+07
1.87595e+07
1.87595e+07
1.87595e+07
1.87595e+07
1.87595e+07
1.87595e+07
1.87595e+07
1.87595e+07
1.87595e+07
1.87595e+07
1.87595e+07
1.87595e+07
1.87595e+07
1.87595e+07
1.87595e+07
1.87595e+07
1.87595e+07
1.87595e+07
1.87595e+07
1.87595e+07
1.87595e+07
1.87595e+07
1.87595e+07
1.87595e+07
1.87595e+07
1.87595e+07
1.87595e+07
1.87595e+07
1.87595e+07
1.87595e+07
1.87595e+07
1.87595e+07
1.87595e+07
1.87595e+07
1.87595e+07
1.87595e+07
1.87595e+07
1.87595e+07
1.87595e+07
1.87595e+07
1.87595e+07
1.87595e+07
1.87595e+07
1.87595e+07
1.87595e+07
1.87595e+07
1.87595e+07
1.87595e+07
1.87595e+07
1.87595e+07
1.87595e+07
1.87595e+07
1.87595e+07
1.87595e+07
1.87595e+07
1.87595e+07
1.87595e+07
1.87595e+07
1.87595e+07
1.87595e+07
1.87595e+07
1.87595e+07
1.87595e+07
1.87595e+07
1.87595e+07
1.87595e+07
1.87595e+07
1.87595e+07
1.87595e+07
1.87595e+07
1.87595e+07
1.87595e+07
1.87595e+07
1.87595e+07
1.87595e+07
1.87595e+07
1.87595e+07
1.87595e+07
1.87595e+07
1.87595e+07
1.79872e+07
4.43129e+06
3.36208e+06
3.25302e+06
3.23887e+06
3.2364e+06
3.23581e+06
3.23564e+06
3.23557e+06
3.23555e+06
3.23554e+06
3.23553e+06
3.23553e+06
3.23553e+06
3.23553e+06
3.23553e+06
3.23553e+06
3.23553e+06
3.23553e+06
3.23553e+06
3.23553e+06
3.23553e+06
3.23554e+06
3.23554e+06
3.23554e+06
3.23554e+06
3.23554e+06
3.23554e+06
3.23554e+06
3.23554e+06
3.23554e+06
3.23554e+06
3.23554e+06
3.23554e+06
3.23554e+06
3.23554e+06
3.23554e+06
3.23554e+06
3.23554e+06
3.23554e+06
3.23554e+06
3.23554e+06
3.23554e+06
3.23554e+06
3.23554e+06
3.23554e+06
3.23554e+06
3.23554e+06
3.23554e+06
3.23554e+06
3.23554e+06
3.23554e+06
3.23554e+06
3.23554e+06
3.23554e+06
3.23554e+06
3.23554e+06
3.23554e+06
3.23554e+06
3.23554e+06
3.23554e+06
3.23554e+06
3.23554e+06
3.23554e+06
3.23554e+06
3.23554e+06
3.23554e+06
3.23554e+06
3.23554e+06
3.23554e+06
3.23554e+06
3.23554e+06
3.23554e+06
3.23554e+06
3.23554e+06
3.23554e+06
3.23554e+06
3.23554e+06
3.23554e+06
3.23554e+06
3.23554e+06
3.23554e+06
3.23554e+06
3.23554e+06
3.23554e+06
3.23554e+06
3.23554e+06
3.23554e+06
3.23554e+06
3.23554e+06
3.23554e+06
3.23554e+06
3.23554e+06
3.23554e+06
3.23554e+06
3.23554e+06
3.23554e+06
3.23554e+06
3.23554e+06
3.23554e+06
1.79872e+07
3.24982e+06
1.50335e+06
1.1919e+06
1.126e+06
1.10987e+06
1.10527e+06
1.10376e+06
1.10319e+06
1.10295e+06
1.10284e+06
1.10279e+06
1.10276e+06
1.10274e+06
1.10274e+06
1.10273e+06
1.10273e+06
1.10273e+06
1.10273e+06
1.10273e+06
1.10273e+06
1.10273e+06
1.10273e+06
1.10273e+06
1.10273e+06
1.10273e+06
1.10273e+06
1.10273e+06
1.10273e+06
1.10273e+06
1.10273e+06
1.10273e+06
1.10273e+06
1.10273e+06
1.10273e+06
1.10273e+06
1.10273e+06
1.10273e+06
1.10273e+06
1.10273e+06
1.10273e+06
1.10273e+06
1.10273e+06
1.10273e+06
1.10273e+06
1.10273e+06
1.10273e+06
1.10273e+06
1.10273e+06
1.10273e+06
1.10273e+06
1.10273e+06
1.10273e+06
1.10273e+06
1.10273e+06
1.10273e+06
1.10273e+06
1.10273e+06
1.10273e+06
1.10273e+06
1.10273e+06
1.10273e+06
1.10273e+06
1.10273e+06
1.10273e+06
1.10273e+06
1.10273e+06
1.10273e+06
1.10273e+06
1.10273e+06
1.10273e+06
1.10273e+06
1.10273e+06
1.10273e+06
1.10273e+06
1.10273e+06
1.10273e+06
1.10273e+06
1.10273e+06
1.10273e+06
1.10273e+06
1.10273e+06
1.10273e+06
1.10273e+06
1.10273e+06
1.10273e+06
1.10273e+06
1.10273e+06
1.10273e+06
1.10273e+06
1.10273e+06
1.10273e+06
1.10273e+06
1.10273e+06
1.10273e+06
1.10273e+06
1.10273e+06
1.10273e+06
1.10273e+06
1.10273e+06
1.79872e+07
3.12327e+06
1.16004e+06
712736
587422
548155
534637
529537
527437
526500
526051
525822
525699
525631
525591
525567
525552
525543
525538
525534
525532
525530
525529
525528
525528
525528
525527
525527
525527
525527
525527
525527
525527
525527
525527
525527
525527
525527
525527
525527
525527
525527
525527
525527
525527
525527
525527
525527
525527
525527
525527
525527
525527
525527
525527
525527
525527
525527
525527
525527
525527
525527
525527
525527
525527
525527
525527
525527
525527
525527
525527
525527
525527
525527
525527
525527
525527
525527
525527
525527
525527
525527
525527
525527
525527
525527
525527
525527
525527
525527
525527
525527
525527
525527
525527
525527
525527
525527
525527
525527
1.79872e+07
3.1063e+06
1.08481e+06
574751
407825
346203
321652
311221
306510
304256
303118
302515
302181
301988
301874
301804
301760
301731
301713
301700
301692
301686
301682
301679
301676
301675
301673
301672
301671
301671
301670
301670
301669
301669
301669
301668
301668
301668
301668
301668
301668
301668
301668
301667
301667
301667
301667
301667
301667
301667
301667
301667
301667
301666
301666
301666
301666
301666
301666
301666
301666
301666
301666
301666
301666
301666
301666
301666
301666
301666
301666
301666
301666
301666
301666
301666
301666
301666
301666
301666
301666
301666
301666
301666
301666
301666
301666
301666
301666
301666
301666
301666
301666
301666
301666
301666
301666
301666
301666
301666
1.79872e+07
3.10328e+06
1.06589e+06
530341
340025
262034
227487
211331
203418
199371
197216
196024
195341
194937
194691
194537
194439
194374
194331
194302
194282
194267
194256
194248
194242
194238
194234
194231
194228
194226
194224
194223
194221
194220
194219
194219
194218
194218
194217
194217
194216
194216
194216
194216
194215
194215
194215
194215
194214
194214
194214
194214
194214
194213
194213
194213
194213
194213
194212
194212
194212
194212
194212
194212
194212
194212
194212
194212
194212
194212
194212
194212
194212
194212
194212
194212
194212
194212
194212
194212
194212
194212
194212
194212
194212
194212
194212
194212
194212
194212
194212
194212
194212
194212
194212
194212
194212
194212
194212
194212
1.79872e+07
3.10257e+06
1.06041e+06
514711
312426
224046
181895
160676
149558
143529
140154
138207
137053
136351
135913
135634
135452
135332
135250
135193
135153
135124
135103
135086
135074
135064
135055
135049
135043
135038
135034
135031
135028
135026
135024
135022
135021
135020
135019
135018
135017
135017
135016
135016
135015
135015
135014
135014
135013
135013
135013
135012
135012
135011
135011
135011
135010
135010
135010
135010
135009
135009
135009
135009
135009
135009
135009
135009
135009
135009
135008
135008
135008
135008
135008
135008
135008
135008
135008
135008
135008
135008
135008
135008
135008
135008
135008
135009
135009
135009
135009
135009
135009
135009
135009
135009
135009
135009
135009
135009
1.79872e+07
3.10236e+06
1.05858e+06
508712
300471
205948
158561
133370
119441
111502
106858
104075
102370
101303
100622
100179
99885.1
99687
99550.8
99455.3
99386.9
99336.7
99299
99270
99247.1
99228.7
99213.7
99201.2
99190.7
99182
99174.6
99168.3
99163.1
99158.7
99155
99151.9
99149.4
99147.2
99145.4
99143.8
99142.5
99141.3
99140.2
99139.3
99138.4
99137.6
99136.9
99136.2
99135.5
99134.9
99134.2
99133.6
99133
99132.4
99131.9
99131.4
99130.9
99130.4
99130
99129.7
99129.4
99129.1
99128.8
99128.6
99128.4
99128.3
99128.2
99128
99128
99127.9
99127.8
99127.8
99127.7
99127.7
99127.7
99127.7
99127.7
99127.7
99127.7
99127.7
99127.7
99127.7
99127.7
99127.7
99127.8
99127.8
99127.8
99127.9
99127.9
99128
99128
99128.1
99128.2
99128.2
99128.3
99128.3
99128.4
99128.4
99128.5
99128.5
1.79872e+07
3.10229e+06
1.05788e+06
506198