/*--------------------------------*- C++ -*----------------------------------*\
| =========                 |                                                 |
| \\      /  F ield         | foam-extend: Open Source CFD                    |
|  \\    /   O peration     | Version:     4.0                                |
|   \\  /    A nd           | Web:         http://www.foam-extend.org         |
|    \\/     M anipulation  |                                                 |
\*---------------------------------------------------------------------------*/
FoamFile
{
    version     2.0;
    format      ascii;
    class       surfaceScalarField;
    location    "0.0013";
    object      phi;
}
// * * * * * * * * * * * * * * * * * * * * * * * * * * * * * * * * * * * * * //

dimensions      [0 3 -1 0 0 0 0];

internalField   nonuniform List<scalar> 
57362
(
8.82336e-11
5.22274e-15
8.82178e-11
1.58228e-14
8.81912e-11
2.66006e-14
8.81534e-11
3.78058e-14
8.81037e-11
4.96329e-14
8.80416e-11
6.21745e-14
8.79659e-11
7.56442e-14
8.78757e-11
9.01916e-14
8.77695e-11
1.06181e-13
8.76457e-11
1.2383e-13
8.75024e-11
1.43303e-13
8.73375e-11
1.6482e-13
8.71487e-11
1.88873e-13
8.6933e-11
2.157e-13
8.66873e-11
2.45662e-13
8.64081e-11
2.79181e-13
8.60913e-11
3.16756e-13
8.57324e-11
3.58837e-13
8.53266e-11
4.059e-13
8.48679e-11
4.58606e-13
8.43502e-11
5.1773e-13
8.37665e-11
5.83576e-13
8.31092e-11
6.57365e-13
8.23697e-11
7.3931e-13
8.1539e-11
8.30855e-13
8.06067e-11
9.31944e-13
7.95623e-11
1.04482e-12
7.83933e-11
1.16836e-12
7.70879e-11
1.30598e-12
7.5632e-11
1.45502e-12
7.40123e-11
1.62052e-12
7.22138e-11
1.79726e-12
7.0222e-11
1.99295e-12
6.8022e-11
2.19833e-12
6.55991e-11
2.42432e-12
6.29404e-11
2.65683e-12
6.0032e-11
2.90988e-12
5.68651e-11
3.16484e-12
5.34296e-11
3.43703e-12
4.97224e-11
3.7051e-12
4.57407e-11
3.98301e-12
4.14896e-11
4.24929e-12
3.69766e-11
4.51408e-12
3.22167e-11
4.75842e-12
2.72299e-11
4.98744e-12
2.20427e-11
5.18619e-12
1.66871e-11
5.35597e-12
1.11999e-11
5.48643e-12
5.62291e-12
5.57708e-12
5.6226e-12
8.82347e-11
1.03996e-14
8.82191e-11
3.14042e-14
8.81929e-11
5.27947e-14
8.81557e-11
7.50124e-14
8.81069e-11
9.847e-14
8.80457e-11
1.23391e-13
8.79712e-11
1.50124e-13
8.78822e-11
1.79151e-13
8.77775e-11
2.10902e-13
8.76555e-11
2.45838e-13
8.75143e-11
2.84457e-13
8.73518e-11
3.27289e-13
8.71656e-11
3.75076e-13
8.6953e-11
4.28289e-13
8.67109e-11
4.87808e-13
8.64355e-11
5.5449e-13
8.61232e-11
6.29126e-13
8.57692e-11
7.12727e-13
8.53688e-11
8.064e-13
8.49161e-11
9.11201e-13
8.44052e-11
1.02873e-12
8.38289e-11
1.15974e-12
8.31799e-11
1.30655e-12
8.24493e-11
1.46962e-12
8.16285e-11
1.652e-12
8.07067e-11
1.85333e-12
7.96738e-11
2.0783e-12
7.8517e-11
2.32458e-12
7.72246e-11
2.59919e-12
7.57823e-11
2.89647e-12
7.41768e-11
3.22734e-12
7.23926e-11
3.58033e-12
7.04152e-11
3.97217e-12
6.82292e-11
4.38284e-12
6.58196e-11
4.83625e-12
6.3173e-11
5.30185e-12
6.02748e-11
5.81095e-12
5.71158e-11
6.32216e-12
5.36847e-11
6.87123e-12
4.99787e-11
7.40983e-12
4.59933e-11
7.97148e-12
4.17339e-11
8.50789e-12
3.7207e-11
9.04388e-12
3.24278e-11
9.53733e-12
2.74163e-11
1.00014e-11
2.2199e-11
1.04038e-11
1.68089e-11
1.07482e-11
1.12834e-11
1.10127e-11
5.66533e-12
1.11967e-11
1.12891e-11
8.8264e-11
1.54183e-14
8.82489e-11
4.6484e-14
8.82235e-11
7.82791e-14
8.81873e-11
1.11211e-13
8.81399e-11
1.45869e-13
8.80805e-11
1.82772e-13
8.80082e-11
2.22443e-13
8.79218e-11
2.65472e-13
8.78202e-11
3.12563e-13
8.77017e-11
3.64293e-13
8.75646e-11
4.21536e-13
8.74068e-11
4.85093e-13
8.7226e-11
5.55861e-13
8.70194e-11
6.34843e-13
8.67841e-11
7.23168e-13
8.65164e-11
8.22109e-13
8.62127e-11
9.32894e-13
8.58684e-11
1.05698e-12
8.54787e-11
1.19611e-12
8.50379e-11
1.35187e-12
8.45403e-11
1.52641e-12
8.39786e-11
1.72124e-12
8.33457e-11
1.93958e-12
8.26328e-11
2.1822e-12
8.18311e-11
2.45387e-12
8.09301e-11
2.75383e-12
7.99195e-11
3.0892e-12
7.87867e-11
3.45663e-12
7.75196e-11
3.86681e-12
7.61037e-11
4.31111e-12
7.45255e-11
4.80624e-12
7.27692e-11
5.33495e-12
7.08196e-11
5.92259e-12
6.8661e-11
6.53919e-12
6.62771e-11
7.22102e-12
6.36539e-11
7.92229e-12
6.07756e-11
8.68995e-12
5.76321e-11
9.46261e-12
5.42104e-11
1.02933e-11
5.05065e-11
1.11105e-11
4.65146e-11
1.19632e-11
4.22386e-11
1.27806e-11
3.76844e-11
1.35975e-11
3.28663e-11
1.43523e-11
2.78042e-11
1.50625e-11
2.25252e-11
1.568e-11
1.70634e-11
1.62087e-11
1.14579e-11
1.66158e-11
5.75414e-12
1.6899e-11
1.70414e-11
8.8294e-11
2.02204e-14
8.82796e-11
6.09036e-14
8.82553e-11
1.02564e-13
8.82208e-11
1.4575e-13
8.81755e-11
1.91141e-13
8.81188e-11
2.39478e-13
8.80498e-11
2.91473e-13
8.79673e-11
3.47937e-13
8.78702e-11
4.0961e-13
8.7757e-11
4.77491e-13
8.7626e-11
5.52564e-13
8.74752e-11
6.35886e-13
8.73023e-11
7.2877e-13
8.71046e-11
8.3247e-13
8.68794e-11
9.48416e-13
8.66232e-11
1.07823e-12
8.63324e-11
1.22377e-12
8.60025e-11
1.3868e-12
8.56289e-11
1.56978e-12
8.52061e-11
1.77456e-12
8.47285e-11
2.0042e-12
8.41888e-11
2.26073e-12
8.35803e-11
2.54839e-12
8.2894e-11
2.86823e-12
8.21216e-11
3.22667e-12
8.12522e-11
3.62282e-12
8.02759e-11
4.06628e-12
7.91795e-11
4.55234e-12
7.79516e-11
5.0961e-12
7.65764e-11
5.68519e-12
7.50411e-11
6.34364e-12
7.33282e-11
7.04642e-12
7.14227e-11
7.83108e-12
6.93071e-11
8.65302e-12
6.69642e-11
9.56795e-12
6.43788e-11
1.05057e-11
6.15322e-11
1.15416e-11
5.84141e-11
1.25788e-11
5.50071e-11
1.3706e-11
5.13078e-11
1.48085e-11
4.73055e-11
1.59715e-11
4.30045e-11
1.70813e-11
3.84081e-11
1.81995e-11
3.35304e-11
1.92309e-11
2.83915e-11
2.02064e-11
2.30186e-11
2.10547e-11
1.74482e-11
2.17834e-11
1.17217e-11
2.23448e-11
5.88835e-12
2.27359e-11
2.29327e-11
8.83243e-11
2.47435e-14
8.83107e-11
7.44432e-14
8.8288e-11
1.25269e-13
8.82557e-11
1.78086e-13
8.82132e-11
2.33612e-13
8.816e-11
2.92696e-13
8.80952e-11
3.5625e-13
8.80179e-11
4.25261e-13
8.79268e-11
5.00656e-13
8.78205e-11
5.83756e-13
8.76975e-11
6.75577e-13
8.75559e-11
7.77541e-13
8.73934e-11
8.91226e-13
8.72077e-11
1.0182e-12
8.69958e-11
1.16024e-12
8.67548e-11
1.31926e-12
8.64809e-11
1.49762e-12
8.617e-11
1.69761e-12
8.58177e-11
1.92211e-12
8.54187e-11
2.17345e-12
8.49673e-11
2.45569e-12
8.44568e-11
2.77102e-12
8.38803e-11
3.12499e-12
8.32292e-11
3.51892e-12
8.24954e-11
3.96073e-12
8.16678e-11
4.44964e-12
8.07368e-11
4.99775e-12
7.96889e-11
5.59908e-12
7.85126e-11
6.27304e-12
7.71919e-11
7.00405e-12
7.57132e-11
7.8232e-12
7.40585e-11
8.69857e-12
7.22115e-11
9.67886e-12
7.01541e-11
1.07072e-11
6.78669e-11
1.18558e-11
6.53333e-11
1.30352e-11
6.2532e-11
1.43429e-11
5.94505e-11
1.56555e-11
5.60687e-11
1.70871e-11
5.23796e-11
1.84922e-11
4.83705e-11
1.9979e-11
4.40417e-11
2.14046e-11
3.93946e-11
2.28442e-11
3.4441e-11
2.41789e-11
2.92008e-11
2.54435e-11
2.37018e-11
2.65485e-11
1.79829e-11
2.74989e-11
1.20894e-11
2.82337e-11
6.07564e-12
2.8746e-11
2.90043e-11
8.83813e-11
2.88235e-14
8.83689e-11
8.68497e-14
8.8348e-11
1.46176e-13
8.83183e-11
2.07804e-13
8.82793e-11
2.7262e-13
8.82304e-11
3.4158e-13
8.81708e-11
4.15796e-13
8.80998e-11
4.96321e-13
8.80159e-11
5.84464e-13
8.79182e-11
6.81478e-13
8.7805e-11
7.88794e-13
8.76745e-11
9.08035e-13
8.75248e-11
1.04088e-12
8.73536e-11
1.18937e-12
8.71583e-11
1.35558e-12
8.69358e-11
1.54177e-12
8.66828e-11
1.75065e-12
8.63953e-11
1.98503e-12
8.60693e-11
2.24819e-12
8.56995e-11
2.54317e-12
8.52807e-11
2.87468e-12
8.48062e-11
3.24527e-12
8.42698e-11
3.66176e-12
8.36627e-11
4.12569e-12
8.29773e-11
4.64679e-12
8.22024e-11
5.22403e-12
8.13289e-11
5.87242e-12
8.03425e-11
6.58454e-12
7.92327e-11
7.38487e-12
7.79817e-11
8.25351e-12
7.65771e-11
9.23117e-12
7.49979e-11
1.02755e-11
7.32291e-11
1.14527e-11
7.12484e-11
1.26848e-11
6.90362e-11
1.4075e-11
6.65727e-11
1.54951e-11
6.38323e-11
1.70922e-11
6.08025e-11
1.8682e-11
5.74529e-11
2.0447e-11
5.37804e-11
2.21626e-11
4.97599e-11
2.40101e-11
4.5394e-11
2.57704e-11
4.0679e-11
2.75692e-11
3.56249e-11
2.92351e-11
3.02526e-11
3.08248e-11
2.45884e-11
3.22163e-11
1.8677e-11
3.3418e-11
1.2566e-11
3.43495e-11
6.3186e-12
3.49999e-11
3.53285e-11
8.84374e-11
3.24841e-14
8.84263e-11
9.79762e-14
8.84075e-11
1.6495e-13
8.83809e-11
2.34459e-13
8.83459e-11
3.07589e-13
8.83021e-11
3.85415e-13
8.82487e-11
4.6914e-13
8.81849e-11
5.60144e-13
8.81097e-11
6.5969e-13
8.80219e-11
7.6922e-13
8.79202e-11
8.90516e-13
8.78029e-11
1.02532e-12
8.76682e-11
1.17555e-12
8.75141e-11
1.34347e-12
8.73381e-11
1.53155e-12
8.71375e-11
1.74239e-12
8.6909e-11
1.97912e-12
8.66492e-11
2.24478e-12
8.63541e-11
2.54336e-12
8.60188e-11
2.87832e-12
8.56385e-11
3.25502e-12
8.52068e-11
3.6767e-12
8.47177e-11
4.15105e-12
8.41627e-11
4.68009e-12
8.35346e-11
5.27523e-12
8.28222e-11
5.93542e-12
8.20168e-11
6.67841e-12
8.11039e-11
7.49578e-12
8.00729e-11
8.41673e-12
7.89056e-11
9.41821e-12
7.75889e-11
1.0549e-11
7.61014e-11
1.17592e-11
7.44257e-11
1.31295e-11
7.25393e-11
1.45664e-11
7.04186e-11
1.61964e-11
6.80429e-11
1.78647e-11
6.53817e-11
1.97531e-11
6.24192e-11
2.16373e-11
5.91212e-11
2.3743e-11
5.54773e-11
2.57982e-11
5.14606e-11
2.80232e-11
4.70639e-11
3.0158e-11
4.22802e-11
3.23477e-11
3.71144e-11
3.43916e-11
3.15854e-11
3.63476e-11
2.57208e-11
3.80722e-11
1.95676e-11
3.95647e-11
1.31808e-11
4.07283e-11
6.63249e-12
4.15416e-11
4.19538e-11
8.84917e-11
3.56873e-14
8.8482e-11
1.07659e-13
8.84657e-11
1.81251e-13
8.84425e-11
2.57645e-13
8.84121e-11
3.38012e-13
8.83739e-11
4.23577e-13
8.83275e-11
5.15621e-13
8.82719e-11
6.15672e-13
8.82065e-11
7.25142e-13
8.813e-11
8.45707e-13
8.80413e-11
9.79189e-13
8.7939e-11
1.12761e-12
8.78214e-11
1.29311e-12
8.76868e-11
1.47813e-12
8.75328e-11
1.68556e-12
8.7357e-11
1.91814e-12
8.71567e-11
2.1795e-12
8.69284e-11
2.47294e-12
8.66688e-11
2.80311e-12
8.63732e-11
3.17379e-12
8.60374e-11
3.59109e-12
8.5655e-11
4.05883e-12
8.5221e-11
4.58555e-12
8.47267e-11
5.17391e-12
8.41661e-11
5.83683e-12
8.35273e-11
6.57339e-12
8.28033e-11
7.40425e-12
8.19777e-11
8.31981e-12
8.10427e-11
9.35491e-12
7.99765e-11
1.0482e-11
7.87696e-11
1.1761e-11
7.73947e-11
1.31303e-11
7.58388e-11
1.46933e-11
7.40713e-11
1.63286e-11
7.20712e-11
1.82079e-11
6.9811e-11
2.01184e-11
6.72543e-11
2.23247e-11
6.43872e-11
2.44979e-11
6.11535e-11
2.6994e-11
5.75577e-11
2.93897e-11
5.35409e-11
3.20578e-11
4.91058e-11
3.45932e-11
4.42365e-11
3.72336e-11
3.89311e-11
3.97011e-11
3.32125e-11
4.20809e-11
2.71007e-11
4.41907e-11
2.06542e-11
4.60239e-11
1.39299e-11
4.74609e-11
7.01535e-12
4.84668e-11
4.89785e-11
8.85702e-11
3.83285e-14
8.85621e-11
1.1569e-13
8.85486e-11
1.94818e-13
8.85292e-11
2.7698e-13
8.85039e-11
3.63394e-13
8.8472e-11
4.5542e-13
8.84331e-11
5.5451e-13
8.83867e-11
6.62122e-13
8.83319e-11
7.79909e-13
8.82679e-11
9.09705e-13
8.81936e-11
1.05346e-12
8.81079e-11
1.21336e-12
8.80092e-11
1.39177e-12
8.7896e-11
1.59132e-12
8.77664e-11
1.81516e-12
8.76182e-11
2.0663e-12
8.7449e-11
2.34871e-12
8.72558e-11
2.66605e-12
8.70355e-11
3.02343e-12
8.6784e-11
3.42507e-12
8.64976e-11
3.87766e-12
8.61704e-11
4.38564e-12
8.57978e-11
4.95846e-12
8.53715e-11
5.59938e-12
8.48861e-11
6.32274e-12
8.43301e-11
7.12806e-12
8.36968e-11
8.03843e-12
8.29702e-11
9.0441e-12
8.21421e-11
1.01843e-11
8.11914e-11
1.14291e-11
8.01068e-11
1.28473e-11
7.88621e-11
1.437e-11
7.744e-11
1.61171e-11
7.58116e-11
1.79501e-11
7.39487e-11
2.00718e-11
7.18248e-11
2.22336e-11
6.93956e-11
2.47533e-11
6.6643e-11
2.72401e-11
6.35076e-11
3.0126e-11
5.9978e-11
3.29071e-11
5.60003e-11
3.60288e-11
5.15524e-11
3.9027e-11
4.66123e-11
4.21642e-11
4.11682e-11
4.51303e-11
3.52356e-11
4.80024e-11
2.8837e-11
5.05751e-11
2.20304e-11
5.28192e-11
1.4886e-11
5.45925e-11
7.50518e-12
5.58364e-11
5.64722e-11
8.86448e-11
4.04413e-14
8.86385e-11
1.22029e-13
8.86278e-11
2.05494e-13
8.86126e-11
2.92191e-13
8.85927e-11
3.8336e-13
8.85676e-11
4.80444e-13
8.85371e-11
5.85073e-13
8.85005e-11
6.98716e-13
8.84573e-11
8.2311e-13
8.84067e-11
9.6023e-13
8.8348e-11
1.11217e-12
8.82802e-11
1.28118e-12
8.8202e-11
1.46997e-12
8.81121e-11
1.68123e-12
8.8009e-11
1.91827e-12
8.78908e-11
2.18447e-12
8.77556e-11
2.48396e-12
8.76007e-11
2.82085e-12
8.74237e-11
3.2006e-12
8.72208e-11
3.62784e-12
8.6989e-11
4.10981e-12
8.67227e-11
4.65156e-12
8.64186e-11
5.26332e-12
8.60683e-11
5.94903e-12
8.5668e-11
6.72437e-12
8.52054e-11
7.58946e-12
8.46766e-11
8.56969e-12
8.40632e-11
9.65531e-12
8.33618e-11
1.08901e-11
8.25452e-11
1.22419e-11
8.16104e-11
1.37896e-11
8.05198e-11
1.54545e-11
7.92686e-11
1.73802e-11
7.78103e-11
1.93994e-11
7.61296e-11
2.17702e-11
7.41826e-11
2.41687e-11
7.19233e-11
2.70366e-11
6.93372e-11
2.98135e-11
6.63188e-11
3.3173e-11
6.29071e-11
3.63098e-11
5.89581e-11
4.00065e-11
5.44821e-11
4.35032e-11
4.94538e-11
4.72187e-11
4.38332e-11
5.07588e-11
3.76508e-11
5.42078e-11
3.09035e-11
5.73346e-11
2.36712e-11
6.00711e-11
1.60236e-11
6.2254e-11
8.08903e-12
6.37876e-11
6.4576e-11
8.87147e-11
4.19364e-14
8.87102e-11
1.26562e-13
8.87025e-11
2.13148e-13
8.86917e-11
3.03008e-13
8.86775e-11
3.97602e-13
8.86596e-11
4.98343e-13
8.86378e-11
6.06869e-13
8.86117e-11
7.24791e-13
8.85808e-11
8.53987e-13
8.85445e-11
9.96476e-13
8.85024e-11
1.15434e-12
8.84535e-11
1.33005e-12
8.8397e-11
1.52646e-12
8.83319e-11
1.74633e-12
8.8257e-11
1.99315e-12
8.81708e-11
2.27059e-12
8.80719e-11
2.58292e-12
8.7958e-11
2.93466e-12
8.78272e-11
3.33146e-12
8.76764e-11
3.77841e-12
8.75031e-11
4.28333e-12
8.73024e-11
4.85165e-12
8.70718e-11
5.49434e-12
8.68036e-11
6.21621e-12
8.64949e-11
7.03388e-12
8.6134e-11
7.94859e-12
8.57177e-11
8.98724e-12
8.52286e-11
1.01414e-11
8.46629e-11
1.14577e-11
8.39956e-11
1.29047e-11
8.32204e-11
1.45672e-11
8.23042e-11
1.63639e-11
8.1234e-11
1.84531e-11
7.99709e-11
2.06533e-11
7.84854e-11
2.32578e-11
7.67415e-11
2.59006e-11
7.46777e-11
2.91003e-11
7.2277e-11
3.21996e-11
6.94344e-11
3.60109e-11
6.61552e-11
3.95718e-11
6.23328e-11
4.38184e-11
5.79096e-11
4.79046e-11
5.28436e-11
5.22687e-11
4.70832e-11
5.64955e-11
4.06353e-11
6.0637e-11
3.35039e-11
6.44432e-11
2.57576e-11
6.77987e-11
1.74873e-11
7.05045e-11
8.84325e-12
7.24143e-11
7.34018e-11
8.88054e-11
4.27976e-14
8.88028e-11
1.2914e-13
8.87985e-11
2.17531e-13
8.87922e-11
3.09276e-13
8.87839e-11
4.05858e-13
8.87735e-11
5.08773e-13
8.87608e-11
6.19591e-13
8.87455e-11
7.40059e-13
8.87274e-11
8.72074e-13
8.87062e-11
1.01774e-12
8.86812e-11
1.17928e-12
8.86522e-11
1.35912e-12
8.86185e-11
1.56017e-12
8.85794e-11
1.78539e-12
8.85341e-11
2.03844e-12
8.84816e-11
2.32304e-12
8.84209e-11
2.64375e-12
8.83502e-11
3.00528e-12
8.82684e-11
3.41345e-12
8.81728e-11
3.87385e-12
8.8062e-11
4.39454e-12
8.79316e-11
4.9816e-12
8.77804e-11
5.64645e-12
8.76008e-11
6.3949e-12
8.73924e-11
7.24403e-12
8.71426e-11
8.19675e-12
8.68524e-11
9.28067e-12
8.65009e-11
1.04898e-11
8.60925e-11
1.1872e-11
8.55926e-11
1.3399e-11
8.50113e-11
1.51588e-11
8.42944e-11
1.70715e-11
8.34576e-11
1.93068e-11
8.24246e-11
2.16719e-11
8.12069e-11
2.45016e-11
7.97197e-11
2.73673e-11
7.79292e-11
3.09279e-11
7.58078e-11
3.42964e-11
7.31654e-11
3.86992e-11
7.0172e-11
4.25459e-11
6.64312e-11
4.76032e-11
6.19906e-11
5.23475e-11
5.6875e-11
5.74227e-11
5.09196e-11
6.24668e-11
4.41735e-11
6.7417e-11
3.65715e-11
7.20673e-11
2.82214e-11
7.6178e-11
1.92101e-11
7.95383e-11
9.73218e-12
8.19166e-11
8.3156e-11
8.88888e-11
4.30894e-14
8.88881e-11
1.29842e-13
8.8887e-11
2.18621e-13
8.88854e-11
3.10863e-13
8.88833e-11
4.07956e-13
8.88806e-11
5.11477e-13
8.88773e-11
6.22965e-13
8.88731e-11
7.4419e-13
8.88681e-11
8.77072e-13
8.88622e-11
1.0237e-12
8.8855e-11
1.18646e-12
8.88464e-11
1.3677e-12
8.88362e-11
1.57043e-12
8.88238e-11
1.7977e-12
8.88091e-11
2.05315e-12
8.87913e-11
2.34077e-12
8.877e-11
2.66508e-12
8.87442e-11
3.03097e-12
8.87132e-11
3.44459e-12
8.8675e-11
3.91176e-12
8.86291e-11
4.44068e-12
8.85719e-11
5.03813e-12
8.85033e-11
5.71561e-12
8.84169e-11
6.48011e-12
8.83131e-11
7.34889e-12
8.81809e-11
8.32679e-12
8.80218e-11
9.44143e-12
8.78177e-11
1.06903e-11
8.75716e-11
1.21208e-11
8.72547e-11
1.37102e-11
8.68705e-11
1.55466e-11
8.63766e-11
1.75568e-11
8.57729e-11
1.9915e-11
8.50028e-11
2.24298e-11
8.40491e-11
2.546e-11
8.28535e-11
2.85466e-11
8.13446e-11
3.24393e-11
7.95081e-11
3.61132e-11
7.71493e-11
4.10537e-11
7.43724e-11
4.53009e-11
7.09576e-11
5.10037e-11
6.67464e-11
5.65242e-11
6.16888e-11
6.24545e-11
5.56457e-11
6.84728e-11
4.86036e-11
7.44284e-11
4.05176e-11
8.01174e-11
3.14473e-11
8.52182e-11
2.15059e-11
8.94499e-11
1.09255e-11
9.24717e-11
9.4057e-11
8.89636e-11
4.2661e-14
8.89649e-11
1.28545e-13
8.89671e-11
2.16443e-13
8.89702e-11
3.07749e-13
8.89742e-11
4.03899e-13
8.89793e-11
5.06447e-13
8.89853e-11
6.16886e-13
8.89925e-11
7.37054e-13
8.90007e-11
8.68817e-13
8.90102e-11
1.01424e-12
8.9021e-11
1.17566e-12
8.90331e-11
1.35558e-12
8.90466e-11
1.55694e-12
8.90615e-11
1.7828e-12
8.90779e-11
2.03681e-12
8.90956e-11
2.32302e-12
8.91147e-11
2.64604e-12
8.91348e-11
3.01084e-12
8.91559e-11
3.42365e-12
8.91769e-11
3.89052e-12
8.91984e-11
4.41969e-12
8.92175e-11
5.01857e-12
8.92356e-11
5.69854e-12
8.92468e-11
6.46784e-12
8.92545e-11
7.34324e-12
8.92469e-11
8.3323e-12
8.92314e-11
9.46089e-12
8.91854e-11
1.07323e-11
8.91239e-11
1.21895e-11
8.90053e-11
1.38215e-11
8.88587e-11
1.5706e-11
8.86093e-11
1.77936e-11
8.831e-11
2.02361e-11
8.78336e-11
2.28852e-11
8.72646e-11
2.60644e-11
8.6412e-11
2.93663e-11
8.53561e-11
3.35497e-11
8.39365e-11
3.74866e-11
8.18963e-11
4.31685e-11
7.98888e-11
4.72635e-11
7.66179e-11
5.43375e-11
7.22698e-11
6.08851e-11
6.73134e-11
6.74621e-11
6.11431e-11
7.46756e-11
5.38089e-11
8.18101e-11
4.512e-11
8.8846e-11
3.51966e-11
9.51843e-11
2.41619e-11
1.0052e-10
1.23064e-11
1.04361e-10
1.06394e-10
8.90557e-11
4.15111e-14
8.9059e-11
1.25268e-13
8.90645e-11
2.10989e-13
8.90722e-11
2.99994e-13
8.90824e-11
3.93746e-13
8.90951e-11
4.93708e-13
8.91105e-11
6.01459e-13
8.91289e-11
7.18727e-13
8.91503e-11
8.47353e-13
8.91752e-11
9.89329e-13
8.92039e-11
1.14697e-12
8.92367e-11
1.32283e-12
8.92739e-11
1.51969e-12
8.9316e-11
1.74068e-12
8.93635e-11
1.9894e-12
8.94166e-11
2.26977e-12
8.94763e-11
2.58651e-12
8.95423e-11
2.94459e-12
8.9616e-11
3.35014e-12
8.96967e-11
3.80953e-12
8.9786e-11
4.33071e-12
8.98822e-11
4.92164e-12
8.99879e-11
5.59355e-12
9.00987e-11
6.35571e-12
9.02191e-11
7.22407e-12
9.034e-11
8.20896e-12
9.04689e-11
9.3341e-12
9.05886e-11
1.06084e-11
9.07111e-11
1.20704e-11
9.08055e-11
1.37203e-11
9.08906e-11
1.56262e-11
9.09133e-11
1.77603e-11
9.09003e-11
2.02565e-11
9.07661e-11
2.30037e-11
9.05388e-11
2.63014e-11
9.00988e-11
2.9784e-11
8.94234e-11
3.42355e-11
8.84396e-11
3.84423e-11
8.67593e-11
4.48501e-11
8.49483e-11
4.90548e-11
8.25028e-11
3.07203e-11
2.60496e-11
7.88948e-11
2.98106e-11
3.46241e-11
7.41799e-11
3.36422e-11
3.84931e-11
6.80608e-11
3.79871e-11
4.27491e-11
6.04725e-11
4.23992e-11
4.6946e-11
5.12575e-11
4.69081e-11
5.10914e-11
4.03712e-11
5.12151e-11
5.48021e-11
2.79236e-11
5.50777e-11
5.78414e-11
1.42872e-11
5.81048e-11
5.98525e-11
6.0023e-11
6.06217e-11
8.91339e-11
3.98039e-14
8.9139e-11
1.20147e-13
8.91477e-11
2.02313e-13
8.916e-11
2.87654e-13
8.91762e-11
3.77548e-13
8.91965e-11
4.73416e-13
8.92211e-11
5.76871e-13
8.92504e-11
6.8939e-13
8.92848e-11
8.12935e-13
8.93249e-11
9.4927e-13
8.93712e-11
1.10072e-12
8.94242e-11
1.26978e-12
8.94848e-11
1.45909e-12
8.95537e-11
1.67177e-12
8.96319e-11
1.91124e-12
8.97202e-11
2.18149e-12
8.98199e-11
2.48693e-12
8.99317e-11
2.83261e-12
9.00577e-11
3.22445e-12
9.0198e-11
3.66894e-12
9.03555e-11
4.17379e-12
9.05293e-11
4.74727e-12
9.07239e-11
5.40003e-12
9.09359e-11
6.14259e-12
9.11728e-11
6.98935e-12
9.14255e-11
7.95388e-12
9.17077e-11
9.05617e-12
9.19989e-11
1.03127e-11
9.23243e-11
1.17529e-11
9.26409e-11
1.33954e-11
9.29968e-11
1.52844e-11
9.33041e-11
1.7438e-11
9.36587e-11
1.99266e-11
9.38787e-11
2.27574e-11
9.41719e-11
2.60505e-11
9.41351e-11
2.97751e-11
9.42914e-11
3.41521e-11
9.36074e-11
3.90442e-11
9.37045e-11
4.48865e-11
4.65509e-11
5.12895e-11
4.47561e-11
-2.66732e-11
2.75305e-11
4.605e-11
-4.36772e-11
4.2867e-11
3.05368e-11
-4.22721e-11
4.11646e-11
3.47078e-11
-4.01215e-11
3.87274e-11
3.93696e-11
-3.72805e-11
3.54391e-11
4.42483e-11
-3.34575e-11
3.11254e-11
4.9257e-11
-2.85676e-11
2.57321e-11
5.40658e-11
-2.26325e-11
1.93148e-11
5.84068e-11
-1.57504e-11
1.20087e-11
6.18568e-11
-8.09123e-12
4.07745e-12
6.40507e-11
8.92105e-11
3.74949e-14
8.92175e-11
1.13112e-13
8.92293e-11
1.90488e-13
8.92461e-11
2.70903e-13
8.9268e-11
3.5562e-13
8.92955e-11
4.45939e-13
8.93289e-11
5.43411e-13
8.93688e-11
6.49502e-13
8.94158e-11
7.66002e-13
8.94704e-11
8.94608e-13
8.95336e-11
1.03754e-12
8.96062e-11
1.19716e-12
8.96894e-11
1.37592e-12
8.97843e-11
1.57689e-12
8.98922e-11
1.80335e-12
9.00145e-11
2.05914e-12
9.01531e-11
2.34837e-12
9.03095e-11
2.6761e-12
9.04862e-11
3.04787e-12
9.06847e-11
3.47007e-12
9.09088e-11
3.95017e-12
9.11587e-11
4.4966e-12
9.14403e-11
5.11916e-12
9.17522e-11
5.82935e-12
9.2103e-11
6.63995e-12
9.24874e-11
7.56689e-12
9.2919e-11
8.627e-12
9.33847e-11
9.84267e-12
9.39062e-11
1.12355e-11
9.44554e-11
1.28387e-11
9.50682e-11
1.46783e-11
9.56878e-11
1.68064e-11
9.63769e-11
1.92481e-11
9.70199e-11
2.20955e-11
9.77418e-11
2.53455e-11
9.82865e-11
2.91997e-11
9.89689e-11
3.34992e-11
9.9123e-11
3.8837e-11
9.97836e-11
4.42863e-11
5.08173e-11
5.21667e-11
4.79844e-11
-2.77952e-11
2.8333e-11
5.05436e-11
-4.74924e-11
4.68874e-11
-3.15793e-11
3.20487e-11
-4.64627e-11
4.55868e-11
-3.60793e-11
3.68676e-11
-4.4736e-11
4.34878e-11
-4.10772e-11
4.22752e-11
-4.21486e-11
4.03693e-11
-4.63962e-11
4.81544e-11
-3.84316e-11
3.59557e-11
-5.1837e-11
5.4312e-11
-3.31607e-11
3.00678e-11
-5.72379e-11
6.03299e-11
-2.66018e-11
2.28326e-11
-6.21473e-11
6.59135e-11
-1.87141e-11
1.43262e-11
-6.60577e-11
7.04451e-11
-9.68713e-12
4.8895e-12
-6.8505e-11
7.33116e-11
8.92844e-11
3.4577e-14
8.92932e-11
1.04339e-13
8.93079e-11
1.75795e-13
8.93288e-11
2.49991e-13
8.93562e-11
3.28214e-13
8.93905e-11
4.11673e-13
8.94323e-11
5.01625e-13
8.94822e-11
5.99619e-13
8.9541e-11
7.07212e-13
8.96095e-11
8.26095e-13
8.96888e-11
9.58283e-13
8.978e-11
1.10594e-12
8.98846e-11
1.27133e-12
9.0004e-11
1.45742e-12
9.01402e-11
1.66723e-12
9.0295e-11
1.90427e-12
9.0471e-11
2.17257e-12
9.067e-11
2.4769e-12
9.08958e-11
2.82238e-12
9.11504e-11
3.21521e-12
9.14388e-11
3.6623e-12
9.17627e-11
4.17215e-12
9.21294e-11
4.75353e-12
9.2539e-11
5.41852e-12
9.30032e-11
6.17809e-12
9.35175e-11
7.05016e-12
9.4101e-11
8.04773e-12
9.47402e-11
9.19882e-12
9.54671e-11
1.05165e-11
9.62493e-11
1.2048e-11
9.71423e-11
1.37992e-11
9.80766e-11
1.58569e-11
9.91496e-11
1.81989e-11
1.00221e-10
2.09983e-11
1.01461e-10
2.41447e-11
1.02598e-10
2.80183e-11
1.03921e-10
3.22401e-11
1.04952e-10
3.77333e-11
1.06054e-10
4.32828e-11
5.50204e-11
5.13987e-11
5.16905e-11
-2.83004e-11
2.83989e-11
5.51204e-11
-5.178e-11
5.14896e-11
-3.27618e-11
3.29576e-11
-5.13271e-11
5.07697e-11
-3.78861e-11
3.83954e-11
-5.01824e-11
4.92246e-11
-4.37132e-11
4.46615e-11
-4.81118e-11
4.65448e-11
-5.01361e-11
5.17288e-11
-4.49151e-11
4.21997e-11
-5.6666e-11
5.94433e-11
-3.89779e-11
3.56822e-11
-6.3612e-11
6.69469e-11
-3.18255e-11
2.75538e-11
-7.00834e-11
7.4376e-11
-2.27527e-11
1.75248e-11
-7.53545e-11
8.05938e-11
-1.19067e-11
6.026e-12
-7.86793e-11
8.45718e-11
8.93519e-11
3.11786e-14
8.93622e-11
9.4058e-14
8.93796e-11
1.58418e-13
8.94043e-11
2.25268e-13
8.94368e-11
2.95724e-13
8.94775e-11
3.70992e-13
8.9527e-11
4.52114e-13
8.95862e-11
5.40457e-13
8.96559e-11
6.37507e-13
8.97372e-11
7.44775e-13
8.98314e-11
8.64085e-13
8.99399e-11
9.97392e-13
9.00645e-11
1.14681e-12
9.02069e-11
1.31502e-12
9.03695e-11
1.50468e-12
9.05545e-11
1.71912e-12
9.07651e-11
1.96207e-12
9.10041e-11
2.23783e-12
9.12755e-11
2.55111e-12
9.15827e-11
2.90772e-12
9.19315e-11
3.31392e-12
9.23249e-11
3.77801e-12
9.27716e-11
4.30762e-12
9.3274e-11
4.9148e-12
9.38446e-11
5.60891e-12
9.44834e-11
6.40883e-12
9.52097e-11
7.32407e-12
9.60181e-11
8.38608e-12
9.69378e-11
9.60116e-12
9.79529e-11
1.10256e-11
9.91089e-11
1.26506e-11
1.00369e-10
1.45853e-11
1.01804e-10
1.67753e-11
1.03336e-10
1.9447e-11
1.05083e-10
2.24181e-11
1.06882e-10
2.61886e-11
1.08922e-10
3.02325e-11
1.10901e-10
3.57048e-11
1.13052e-10
4.119e-11
5.92592e-11
4.93897e-11
5.57206e-11
-2.80594e-11
2.77085e-11
5.97564e-11
-5.6525e-11
5.66306e-11
-3.32413e-11
3.30694e-11
-5.68497e-11
5.67312e-11
-3.89786e-11
3.90748e-11
-5.65157e-11
5.60452e-11
-4.57389e-11
4.62247e-11
-5.51684e-11
5.42744e-11
-5.37356e-11
5.46851e-11
-2.67372e-11
-3.21464e-11
2.57911e-11
3.27255e-11
-2.36127e-11
-3.73985e-11
2.25403e-11
3.81926e-11
-1.92627e-11
-4.19909e-11
1.78511e-11
4.32042e-11
-1.33458e-11
-4.56927e-11
1.1579e-11
4.73353e-11
-6.02937e-12
4.98048e-11
-4.78537e-11
4.02671e-12
8.94118e-11
2.7305e-14
8.94236e-11
8.22884e-14
8.94434e-11
1.38587e-13
8.94715e-11
1.97115e-13
8.95085e-11
2.58754e-13
8.9555e-11
3.24532e-13
8.96116e-11
3.95541e-13
8.96791e-11
4.72928e-13
8.97587e-11
5.57905e-13
8.98516e-11
6.51859e-13
8.99594e-11
7.56362e-13
9.00836e-11
8.73179e-13
9.02262e-11
1.00423e-12
9.03894e-11
1.15175e-12
9.0576e-11
1.31815e-12
9.07886e-11
1.5065e-12
9.10309e-11
1.7199e-12
9.13062e-11
1.96234e-12
9.16197e-11
2.23789e-12
9.19752e-11
2.55197e-12
9.23797e-11
2.91001e-12
9.28375e-11
3.31962e-12
9.33588e-11
3.7874e-12
9.39474e-11
4.32498e-12
9.46185e-11
4.93992e-12
9.53742e-11
5.65087e-12
9.62375e-11
6.46471e-12
9.72055e-11
7.41377e-12
9.83143e-11
8.49937e-12
9.95509e-11
9.78122e-12
1.00971e-10
1.12423e-11
1.02544e-10
1.29997e-11
1.04353e-10
1.49862e-11
1.06336e-10
1.74418e-11
1.08612e-10
2.01736e-11
1.11079e-10
2.36866e-11
1.13869e-10
2.74897e-11
1.16864e-10
3.26577e-11
1.20087e-10
3.80318e-11
6.35465e-11
4.58541e-11
6.00041e-11
-2.69671e-11
2.60978e-11
6.45272e-11
-6.16602e-11
6.2258e-11
-3.28347e-11
3.21881e-11
-6.29922e-11
6.34292e-11
-3.90612e-11
3.86141e-11
-6.38103e-11
6.38983e-11
-4.65596e-11
4.64913e-11
-6.37065e-11
6.31219e-11
-5.54027e-11
5.60301e-11
-3.23443e-11
-3.44059e-11
3.15828e-11
3.4809e-11
-2.93754e-11
-4.08153e-11
2.83421e-11
4.16298e-11
-2.46761e-11
-4.73136e-11
2.3139e-11
4.87248e-11
-1.75947e-11
-5.30187e-11
1.54275e-11
5.51197e-11
-8.10717e-12
5.9247e-11
-5.66205e-11
5.45744e-12
8.94658e-11
2.29604e-14
8.94789e-11
6.92058e-14
8.95009e-11
1.16603e-13
8.95321e-11
1.65865e-13
8.95731e-11
2.17787e-13
8.96245e-11
2.73129e-13
8.96872e-11
3.32863e-13
8.97621e-11
3.98042e-13
8.98504e-11
4.69576e-13
8.99535e-11
5.48732e-13
9.00731e-11
6.3678e-13
9.02111e-11
7.35228e-13
9.03696e-11
8.45729e-13
9.05512e-11
9.70083e-13
9.07589e-11
1.1105e-12
9.09959e-11
1.26948e-12
9.12662e-11
1.44967e-12
9.15738e-11
1.65458e-12
9.19244e-11
1.88753e-12
9.23227e-11
2.15341e-12
9.27765e-11
2.45661e-12
9.32915e-11
2.80393e-12
9.38789e-11
3.2008e-12
9.45447e-11
3.6579e-12
9.53051e-11
4.18099e-12
9.61662e-11
4.78749e-12
9.71515e-11
5.48201e-12
9.82657e-11
6.2955e-12
9.95437e-11
7.22577e-12
1.00987e-10
8.33141e-12
1.02646e-10
9.59007e-12
1.04516e-10
1.11187e-11
1.06671e-10
1.28429e-11
1.09094e-10
1.50022e-11
1.11886e-10
1.73999e-11
1.15016e-10
2.05309e-11
1.18603e-10
2.39314e-11
1.22615e-10
2.86076e-11
1.27116e-10
3.35734e-11
6.77634e-11
4.07596e-11
6.4393e-11
-2.49037e-11
2.35008e-11
6.92517e-11
-6.70315e-11
6.82219e-11
-3.13509e-11
3.01213e-11
-6.96097e-11
7.07741e-11
-3.78986e-11
3.67281e-11
-7.1971e-11
7.29212e-11
-4.60638e-11
4.51303e-11
-7.37188e-11
7.41144e-11
-5.6194e-11
5.58293e-11
-3.88992e-11
-3.58141e-11
3.84005e-11
3.59705e-11
-3.69395e-11
-4.40328e-11
3.60659e-11
4.47244e-11
-3.25865e-11
-5.32959e-11
3.0945e-11
5.48569e-11
-2.43407e-11
-6.23553e-11
2.15608e-11
6.51128e-11
-1.16271e-11
7.24059e-11
-6.86437e-11
7.86722e-12
8.95105e-11
1.82665e-14
8.95246e-11
5.50905e-14
8.95484e-11
9.28077e-14
8.95822e-11
1.32001e-13
8.96266e-11
1.73371e-13
8.96823e-11
2.17507e-13
8.97501e-11
2.65034e-13
8.98312e-11
3.16936e-13
8.99269e-11
3.73897e-13
9.00387e-11
4.36957e-13
9.01683e-11
5.0718e-13
9.03179e-11
5.85621e-13
9.049e-11
6.73701e-13
9.06871e-11
7.72878e-13
9.09127e-11
8.84959e-13
9.11704e-11
1.01183e-12
9.14644e-11
1.15572e-12
9.17995e-11
1.31941e-12
9.21817e-11
1.50561e-12
9.26165e-11
1.7183e-12
9.31128e-11
1.96088e-12
9.36769e-11
2.23923e-12
9.43214e-11
2.55737e-12
9.50538e-11
2.92432e-12
9.58922e-11
3.34458e-12
9.68446e-11
3.83294e-12
9.79377e-11
4.39246e-12
9.91795e-11
5.04991e-12
1.00609e-10
5.80219e-12
1.02234e-10
6.70014e-12
1.04111e-10
7.72353e-12
1.06245e-10
8.97278e-12
1.08719e-10
1.03855e-11
1.1154e-10
1.2164e-11
1.14812e-10
1.4152e-11
1.18561e-10
1.67553e-11
1.22899e-10
1.96273e-11
1.2791e-10
2.35612e-11
1.33653e-10
2.78728e-11
7.16869e-11
3.40199e-11
6.86608e-11
-2.17932e-11
1.98359e-11
7.37108e-11
-7.23842e-11
7.42581e-11
-2.86062e-11
2.66995e-11
-7.64111e-11
7.84733e-11
-3.51623e-11
3.30947e-11
-8.06956e-11
8.2826e-11
-4.36578e-11
4.15394e-11
-8.49717e-11
8.69065e-11
-5.47544e-11
5.28409e-11
-4.67339e-11
-3.58364e-11
4.67389e-11
3.55096e-11
-4.69258e-11
-4.62019e-11
4.65663e-11
4.63985e-11
-4.45522e-11
-5.93211e-11
4.33824e-11
6.04299e-11
-3.56008e-11
-7.43254e-11
3.21441e-11
7.78172e-11
-1.82906e-11
9.21141e-11
-8.63059e-11
1.25233e-11
8.95452e-11
1.3289e-14
8.95601e-11
4.00948e-14
8.95854e-11
6.75964e-14
8.96212e-11
9.61148e-14
8.96684e-11
1.26259e-13
8.97274e-11
1.58431e-13
8.97994e-11
1.93077e-13
8.98854e-11
2.30912e-13
8.9987e-11
2.72352e-13
9.01056e-11
3.18318e-13
9.02433e-11
3.69559e-13
9.04021e-11
4.26731e-13
9.05849e-11
4.90943e-13
9.07945e-11
5.63286e-13
9.10345e-11
6.45027e-13
9.13086e-11
7.37672e-13
9.16217e-11
8.42696e-13
9.19788e-11
9.6221e-13
9.23864e-11
1.09826e-12
9.28506e-11
1.25374e-12
9.33808e-11
1.43116e-12
9.39845e-11
1.63488e-12
9.46748e-11
1.86784e-12
9.54611e-11
2.13689e-12
9.6362e-11
2.44506e-12
9.73889e-11
2.80395e-12
9.85687e-11
3.21513e-12
9.99152e-11
3.69972e-12
1.01468e-10
4.25395e-12
1.03243e-10
4.9185e-12
1.05298e-10
5.67532e-12
1.07657e-10
6.6049e-12
1.10398e-10
7.65508e-12
1.1356e-10
8.98782e-12
1.17249e-10
1.04779e-11
1.2154e-10
1.24457e-11
1.26561e-10
1.46274e-11
1.32464e-10
1.76325e-11
1.39388e-10
2.09771e-11
7.50652e-11
2.57403e-11
7.25691e-11
-1.76158e-11
1.5149e-11
7.75823e-11
-7.73808e-11
7.99747e-11
-2.44542e-11
2.18338e-11
-8.29467e-11
8.60125e-11
-3.05482e-11
2.74775e-11
-8.94095e-11
9.29653e-11
-3.87365e-11
3.51891e-11
-9.67985e-11
1.00784e-10
-4.99539e-11
4.59833e-11
-5.5562e-11
-3.34355e-11
5.63849e-11
3.23278e-11
-5.94363e-11
-4.56153e-11
6.01645e-11
4.47436e-11
-6.16915e-11
-6.36228e-11
6.37309e-11
3.25321e-11
2.89803e-11