/*--------------------------------*- C++ -*----------------------------------*\
| =========                 |                                                 |
| \\      /  F ield         | foam-extend: Open Source CFD                    |
|  \\    /   O peration     | Version:     4.0                                |
|   \\  /    A nd           | Web:         http://www.foam-extend.org         |
|    \\/     M anipulation  |                                                 |
\*---------------------------------------------------------------------------*/
FoamFile
{
    version     2.0;
    format      ascii;
    class       volVectorField;
    location    "0.0013";
    object      U;
}
// * * * * * * * * * * * * * * * * * * * * * * * * * * * * * * * * * * * * * //

dimensions      [0 1 -1 0 0 0 0];

internalField   nonuniform List<vector> 
28770
(
(0.00300377 8.72568e-08 0)
(0.00300342 2.64306e-07 0)
(0.0030027 4.45876e-07 0)
(0.00300161 6.33552e-07 0)
(0.00300012 8.31361e-07 0)
(0.00299823 1.04055e-06 0)
(0.00299589 1.26656e-06 0)
(0.00299308 1.50695e-06 0)
(0.00298975 1.77483e-06 0)
(0.00298585 2.07142e-06 0)
(0.00298132 2.39773e-06 0)
(0.00297609 2.75711e-06 0)
(0.00297009 3.15715e-06 0)
(0.00296323 3.6079e-06 0)
(0.00295541 4.10916e-06 0)
(0.00294651 4.6689e-06 0)
(0.0029364 5.29786e-06 0)
(0.00292494 6.00228e-06 0)
(0.00291196 6.78683e-06 0)
(0.00289731 7.66924e-06 0)
(0.00288073 8.65804e-06 0)
(0.00286206 9.7594e-06 0)
(0.00284099 1.09941e-05 0)
(0.00281731 1.23644e-05 0)
(0.00279064 1.38953e-05 0)
(0.00276076 1.55854e-05 0)
(0.00272717 1.74737e-05 0)
(0.00268965 1.95372e-05 0)
(0.00264758 2.18436e-05 0)
(0.00260078 2.43342e-05 0)
(0.00254845 2.71103e-05 0)
(0.00249051 3.00581e-05 0)
(0.002426 3.33495e-05 0)
(0.0023549 3.6765e-05 0)
(0.00227623 4.05795e-05 0)
(0.00218994 4.4434e-05 0)
(0.00209521 4.87117e-05 0)
(0.00199193 5.29239e-05 0)
(0.0018796 5.75281e-05 0)
(0.00175803 6.19423e-05 0)
(0.00162721 6.66337e-05 0)
(0.00148694 7.10085e-05 0)
(0.00133779 7.54523e-05 0)
(0.00117968 7.94622e-05 0)
(0.00101372 8.3282e-05 0)
(0.000840172 8.65401e-05 0)
(0.000660554 8.93573e-05 0)
(0.000475548 9.14941e-05 0)
(0.000286976 9.2993e-05 0)
(9.58478e-05 9.37385e-05 0)
(0.00300412 2.60917e-07 0)
(0.00300376 7.90523e-07 0)
(0.00300305 1.32745e-06 0)
(0.00300198 1.88677e-06 0)
(0.00300052 2.47742e-06 0)
(0.00299865 3.10431e-06 0)
(0.00299635 3.77625e-06 0)
(0.00299358 4.50567e-06 0)
(0.00299029 5.30372e-06 0)
(0.00298645 6.18372e-06 0)
(0.00298199 7.15557e-06 0)
(0.00297684 8.23062e-06 0)
(0.00297092 9.43406e-06 0)
(0.00296416 1.07718e-05 0)
(0.00295645 1.22679e-05 0)
(0.00294767 1.39427e-05 0)
(0.0029377 1.58187e-05 0)
(0.00292641 1.79196e-05 0)
(0.0029136 2.02725e-05 0)
(0.00289914 2.29037e-05 0)
(0.00288278 2.58564e-05 0)
(0.00286435 2.91447e-05 0)
(0.00284354 3.28291e-05 0)
(0.00282016 3.69217e-05 0)
(0.0027938 4.14937e-05 0)
(0.00276427 4.65426e-05 0)
(0.00273103 5.21794e-05 0)
(0.00269393 5.83514e-05 0)
(0.00265227 6.52193e-05 0)
(0.00260594 7.26647e-05 0)
(0.00255406 8.09213e-05 0)
(0.00249662 8.9756e-05 0)
(0.00243258 9.95103e-05 0)
(0.00236197 0.000109787 0)
(0.00228374 0.000121038 0)
(0.00219791 0.000132684 0)
(0.00210353 0.000145275 0)
(0.00200057 0.00015806 0)
(0.00188844 0.000171601 0)
(0.00176694 0.000185058 0)
(0.00163609 0.000198893 0)
(0.00149558 0.00021227 0)
(0.00134606 0.000225479 0)
(0.00118735 0.000237758 0)
(0.00102065 0.000249205 0)
(0.000846121 0.000259197 0)
(0.000665404 0.000267698 0)
(0.000479109 0.000274258 0)
(0.000289173 0.000278803 0)
(9.65779e-05 0.000281092 0)
(0.0030048 4.32395e-07 0)
(0.00300446 1.30312e-06 0)
(0.00300377 2.19224e-06 0)
(0.00300272 3.11412e-06 0)
(0.00300131 4.08734e-06 0)
(0.0029995 5.12188e-06 0)
(0.00299727 6.23213e-06 0)
(0.00299457 7.43787e-06 0)
(0.00299139 8.75656e-06 0)
(0.00298765 1.02057e-05 0)
(0.00298332 1.18084e-05 0)
(0.00297832 1.35889e-05 0)
(0.00297258 1.55713e-05 0)
(0.00296601 1.77812e-05 0)
(0.00295852 2.02531e-05 0)
(0.00294999 2.30237e-05 0)
(0.00294029 2.61236e-05 0)
(0.00292931 2.95961e-05 0)
(0.00291685 3.34882e-05 0)
(0.00290277 3.78438e-05 0)
(0.00288684 4.27264e-05 0)
(0.00286889 4.8172e-05 0)
(0.0028486 5.4275e-05 0)
(0.0028258 6.10545e-05 0)
(0.00280007 6.86414e-05 0)
(0.00277122 7.70142e-05 0)
(0.00273872 8.63758e-05 0)
(0.00270242 9.66225e-05 0)
(0.00266159 0.000108062 0)
(0.00261616 0.000120435 0)
(0.00256519 0.000134237 0)
(0.00250871 0.000148936 0)
(0.00244562 0.000165305 0)
(0.00237598 0.000182406 0)
(0.00229865 0.000201383 0)
(0.00221368 0.000220777 0)
(0.00212006 0.000242127 0)
(0.00201771 0.000263423 0)
(0.00190604 0.000286487 0)
(0.00178476 0.000308937 0)
(0.00165387 0.000332546 0)
(0.00151298 0.00035493 0)
(0.00136274 0.000377454 0)
(0.00120292 0.000398073 0)
(0.00103471 0.000417565 0)
(0.000858279 0.000434396 0)
(0.000675301 0.000448856 0)
(0.000486421 0.000459931 0)
(0.000293668 0.000467657 0)
(9.80901e-05 0.000471526 0)
(0.00300582 5.95492e-07 0)
(0.00300549 1.79581e-06 0)
(0.00300483 3.02636e-06 0)
(0.00300384 4.29993e-06 0)
(0.00300248 5.63727e-06 0)
(0.00300075 7.06294e-06 0)
(0.00299862 8.5974e-06 0)
(0.00299605 1.02603e-05 0)
(0.00299301 1.2081e-05 0)
(0.00298945 1.40805e-05 0)
(0.0029853 1.6294e-05 0)
(0.00298052 1.87506e-05 0)
(0.00297503 2.14861e-05 0)
(0.00296875 2.45417e-05 0)
(0.00296158 2.79581e-05 0)
(0.00295342 3.17835e-05 0)
(0.00294414 3.60694e-05 0)
(0.00293361 4.08689e-05 0)
(0.00292168 4.62524e-05 0)
(0.00290818 5.22811e-05 0)
(0.00289289 5.90343e-05 0)
(0.00287566 6.65775e-05 0)
(0.00285615 7.50306e-05 0)
(0.00283422 8.44255e-05 0)
(0.00280943 9.49498e-05 0)
(0.00278164 0.000106574 0)
(0.00275024 0.000119571 0)
(0.00271517 0.000133819 0)
(0.00267559 0.000149725 0)
(0.00263157 0.000166972 0)
(0.00258197 0.000186179 0)
(0.00252704 0.000206728 0)
(0.00246535 0.000229534 0)
(0.00239731 0.00025354 0)
(0.00232131 0.000280018 0)
(0.0022378 0.000307376 0)
(0.00214528 0.000337203 0)
(0.002044 0.000367418 0)
(0.00193299 0.00039973 0)
(0.00181205 0.00043176 0)
(0.00168113 0.000465002 0)
(0.00153956 0.000497109 0)
(0.00138831 0.000529047 0)
(0.00122663 0.000558749 0)
(0.00105622 0.000586601 0)
(0.000876759 0.000610937 0)
(0.000690408 0.000631727 0)
(0.000497517 0.000647789 0)
(0.000300528 0.000658941 0)
(0.000100367 0.000664564 0)
(0.00300714 7.52525e-07 0)
(0.00300683 2.2644e-06 0)
(0.00300622 3.81119e-06 0)
(0.00300529 5.41666e-06 0)
(0.00300402 7.10542e-06 0)
(0.0030024 8.90218e-06 0)
(0.00300039 1.0834e-05 0)
(0.00299798 1.29354e-05 0)
(0.00299513 1.52262e-05 0)
(0.00299179 1.7752e-05 0)
(0.00298789 2.05434e-05 0)
(0.00298341 2.36416e-05 0)
(0.00297825 2.70983e-05 0)
(0.00297235 3.0956e-05 0)
(0.0029656 3.52692e-05 0)
(0.00295792 4.00983e-05 0)
(0.00294918 4.55147e-05 0)
(0.00293928 5.15838e-05 0)
(0.00292802 5.83987e-05 0)
(0.00291529 6.6022e-05 0)
(0.00290085 7.45784e-05 0)
(0.00288455 8.41372e-05 0)
(0.00286609 9.48608e-05 0)
(0.0028453 0.000106788 0)
(0.00282175 0.00012016 0)
(0.00279534 0.000134945 0)
(0.0027654 0.000151513 0)
(0.00273195 0.000169669 0)
(0.00269405 0.000190013 0)
(0.00265185 0.000212039 0)
(0.00260413 0.000236728 0)
(0.00255116 0.00026303 0)
(0.00249146 0.000292534 0)
(0.00242541 0.000323325 0)
(0.00235137 0.000357841 0)
(0.00226967 0.000392998 0)
(0.00217886 0.00043223 0)
(0.00207893 0.000471164 0)
(0.00196904 0.000513999 0)
(0.00184867 0.000555464 0)
(0.00171785 0.000599759 0)
(0.00157569 0.000641639 0)
(0.0014231 0.000684247 0)
(0.00125927 0.0007233 0)
(0.00108581 0.000760484 0)
(0.000902465 0.000792699 0)
(0.000711385 0.00082049 0)
(0.000513069 0.000841851 0)
(0.000310093 0.000856778 0)
(0.000103596 0.000864273 0)
(0.00300876 8.97047e-07 0)
(0.00300848 2.6985e-06 0)
(0.00300792 4.54013e-06 0)
(0.00300706 6.45582e-06 0)
(0.00300589 8.46877e-06 0)
(0.00300441 1.0611e-05 0)
(0.00300256 1.29161e-05 0)
(0.00300035 1.54154e-05 0)
(0.00299773 1.8151e-05 0)
(0.00299464 2.11652e-05 0)
(0.00299107 2.44952e-05 0)
(0.00298694 2.81947e-05 0)
(0.00298219 3.2317e-05 0)
(0.00297675 3.69242e-05 0)
(0.00297053 4.20807e-05 0)
(0.00296345 4.78529e-05 0)
(0.00295538 5.43271e-05 0)
(0.00294622 6.15904e-05 0)
(0.00293581 6.97425e-05 0)
(0.00292403 7.88752e-05 0)
(0.00291063 8.91348e-05 0)
(0.00289551 0.000100598 0)
(0.00287833 0.000113473 0)
(0.00285899 0.000127808 0)
(0.002837 0.000143889 0)
(0.00281233 0.000161698 0)
(0.00278423 0.000181671 0)
(0.00275287 0.000203605 0)
(0.00271707 0.000228191 0)
(0.00267731 0.0002549 0)
(0.0026319 0.000284821 0)
(0.00258168 0.000316877 0)
(0.00252439 0.000352726 0)
(0.00246125 0.000390489 0)
(0.00238954 0.000432549 0)
(0.00231064 0.000476016 0)
(0.00222182 0.000523971 0)
(0.00212406 0.000572542 0)
(0.00201554 0.00062515 0)
(0.00189601 0.000677356 0)
(0.00176551 0.000732181 0)
(0.00162228 0.000785338 0)
(0.00146827 0.000838705 0)
(0.00130127 0.000888632 0)
(0.00112417 0.000935762 0)
(0.000935514 0.000977212 0)
(0.000738535 0.00101278 0)
(0.000533048 0.00104041 0)
(0.000322482 0.00105963 0)
(0.000107707 0.00106936 0)
(0.00301066 1.02452e-06 0)
(0.00301041 3.09149e-06 0)
(0.0030099 5.20496e-06 0)
(0.00300913 7.39781e-06 0)
(0.00300809 9.70591e-06 0)
(0.00300675 1.2161e-05 0)
(0.0030051 1.48037e-05 0)
(0.00300312 1.76727e-05 0)
(0.00300076 2.08133e-05 0)
(0.002998 2.42666e-05 0)
(0.00299478 2.8091e-05 0)
(0.00299107 3.2341e-05 0)
(0.0029868 3.7075e-05 0)
(0.0029819 4.23672e-05 0)
(0.0029763 4.82912e-05 0)
(0.00296992 5.49319e-05 0)
(0.00296264 6.23831e-05 0)
(0.00295437 7.07452e-05 0)
(0.00294495 8.01371e-05 0)
(0.00293428 9.06694e-05 0)
(0.00292212 0.00010251 0)
(0.00290839 0.000115753 0)
(0.00289272 0.000130645 0)
(0.00287509 0.000147238 0)
(0.00285494 0.000165896 0)
(0.00283233 0.00018657 0)
(0.00280643 0.000209823 0)
(0.0027775 0.000235365 0)
(0.00274428 0.000264133 0)
(0.00270731 0.000295334 0)
(0.00266481 0.00033059 0)
(0.00261766 0.000368154 0)
(0.00256354 0.000410786 0)
(0.00250357 0.000455165 0)
(0.00243511 0.000505785 0)
(0.00235918 0.00055699 0)
(0.00227337 0.000615508 0)
(0.002178 0.000672924 0)
(0.00207167 0.000737982 0)
(0.00195347 0.000800151 0)
(0.00182359 0.000868494 0)
(0.00167999 0.000932688 0)
(0.00152425 0.000999239 0)
(0.00135431 0.00106037 0)
(0.00117255 0.00111922 0)
(0.000977879 0.00117054 0)
(0.000773267 0.00121509 0)
(0.000558947 0.00124956 0)
(0.00033844 0.0012737 0)
(0.000113118 0.00128587 0)
(0.0030128 1.14108e-06 0)
(0.00301258 3.44024e-06 0)
(0.00301214 5.79169e-06 0)
(0.00301147 8.23272e-06 0)
(0.00301056 1.08e-05 0)
(0.0030094 1.35332e-05 0)
(0.00300796 1.64723e-05 0)
(0.00300623 1.96701e-05 0)
(0.00300418 2.31659e-05 0)
(0.00300178 2.70146e-05 0)
(0.00299897 3.12766e-05 0)
(0.00299574 3.60136e-05 0)
(0.00299201 4.12947e-05 0)
(0.00298773 4.71972e-05 0)
(0.00298284 5.3812e-05 0)
(0.00297725 6.12269e-05 0)
(0.00297087 6.95577e-05 0)
(0.00296361 7.89064e-05 0)
(0.00295533 8.94198e-05 0)
(0.00294593 0.000101218 0)
(0.0029352 0.00011449 0)
(0.00292307 0.00012936 0)
(0.00290916 0.000146091 0)
(0.00289352 0.000164767 0)
(0.0028755 0.000185785 0)
(0.00285535 0.000209124 0)
(0.00283201 0.000235403 0)
(0.00280605 0.000264353 0)
(0.0027758 0.00029698 0)
(0.00274238 0.000332545 0)
(0.0027032 0.000372676 0)
(0.00266021 0.000415794 0)
(0.00260958 0.00046451 0)
(0.00255427 0.000515923 0)
(0.00248923 0.00057397 0)
(0.00241808 0.000633984 0)
(0.00233534 0.000701357 0)
(0.00224399 0.000769559 0)
(0.00214012 0.000844882 0)
(0.00202381 0.000919723 0)
(0.00189528 0.000999711 0)
(0.00175031 0.00107784 0)
(0.0015933 0.00115726 0)
(0.00141876 0.00123239 0)
(0.00123205 0.00130394 0)
(0.00102938 0.00136759 0)
(0.0008159 0.00142255 0)
(0.000590437 0.00146565 0)
(0.000358043 0.00149573 0)
(0.00011963 0.00151104 0)
(0.00301514 1.23807e-06 0)
(0.00301496 3.73701e-06 0)
(0.0030146 6.29174e-06 0)
(0.00301404 8.94366e-06 0)
(0.00301328 1.17342e-05 0)
(0.00301231 1.47053e-05 0)
(0.00301111 1.79025e-05 0)
(0.00300966 2.13748e-05 0)
(0.00300795 2.5177e-05 0)
(0.00300593 2.9366e-05 0)
(0.00300359 3.40028e-05 0)
(0.00300088 3.91608e-05 0)
(0.00299775 4.4913e-05 0)
(0.00299416 5.1345e-05 0)
(0.00299004 5.85589e-05 0)
(0.00298534 6.66492e-05 0)
(0.00297995 7.57429e-05 0)
(0.00297382 8.59569e-05 0)
(0.0029668 9.74549e-05 0)
(0.00295883 0.000110368 0)
(0.00294967 0.000124916 0)
(0.00293933 0.00014123 0)
(0.00292739 0.000159613 0)
(0.00291396 0.000180161 0)
(0.00289837 0.000203338 0)
(0.00288091 0.000229103 0)
(0.00286051 0.000258215 0)
(0.0028378 0.000290302 0)
(0.00281104 0.000326682 0)
(0.00278142 0.000366256 0)
(0.00274632 0.000411396 0)
(0.00270757 0.000459565 0)
(0.00266158 0.000515047 0)
(0.00261075 0.000572652 0)
(0.00255071 0.000639892 0)
(0.00248392 0.000707244 0)
(0.00240611 0.000786961 0)
(0.00231854 0.000863642 0)
(0.0022187 0.000954725 0)
(0.00210507 0.0010396 0)
(0.0019784 0.00113748 0)
(0.00183426 0.00122838 0)
(0.00167557 0.00132498 0)
(0.00149792 0.00141436 0)
(0.00130492 0.00150146 0)
(0.00109402 0.00157847 0)
(0.000869286 0.00164572 0)
(0.000630604 0.00169842 0)
(0.000382874 0.0017354 0)
(0.000128099 0.00175421 0)
(0.00301767 1.31716e-06 0)
(0.00301752 3.97566e-06 0)
(0.00301723 6.69611e-06 0)
(0.0030168 9.52169e-06 0)
(0.0030162 1.2492e-05 0)
(0.00301544 1.5656e-05 0)
(0.00301449 1.90648e-05 0)
(0.00301336 2.27667e-05 0)
(0.003012 2.68169e-05 0)
(0.00301041 3.1281e-05 0)
(0.00300856 3.62278e-05 0)
(0.00300642 4.17299e-05 0)
(0.00300394 4.78718e-05 0)
(0.00300109 5.47427e-05 0)
(0.00299782 6.2452e-05 0)
(0.00299408 7.11045e-05 0)
(0.00298977 8.08375e-05 0)
(0.00298487 9.17797e-05 0)
(0.00297923 0.000104107 0)
(0.00297282 0.000117969 0)
(0.00296541 0.000133595 0)
(0.00295704 0.000151147 0)
(0.00294728 0.000170951 0)
(0.00293633 0.000193131 0)
(0.00292343 0.000218178 0)
(0.00290908 0.000246101 0)
(0.00289194 0.00027768 0)
(0.00287309 0.000312638 0)
(0.00285017 0.00035227 0)
(0.00282534 0.000395685 0)
(0.00279457 0.000445089 0)
(0.0027617 0.000498434 0)
(0.00272032 0.000559423 0)
(0.00267651 0.000624022 0)
(0.00262103 0.000698227 0)
(0.00256209 0.000774996 0)
(0.00248847 0.000863256 0)
(0.00240826 0.000952368 0)
(0.00231241 0.00105368 0)
(0.00220276 0.0011542 0)
(0.00208013 0.00126444 0)
(0.0019339 0.00137342 0)
(0.0017754 0.00148596 0)
(0.00159156 0.00159433 0)
(0.00139273 0.0016987 0)
(0.00117064 0.0017932 0)
(0.000933354 0.00187556 0)
(0.00067825 0.00194108 0)
(0.000412678 0.00198703 0)
(0.000138046 0.0020106 0)
(0.00302033 1.37893e-06 0)
(0.00302023 4.15961e-06 0)
(0.00302002 7.00346e-06 0)
(0.00301971 9.9577e-06 0)
(0.00301929 1.30653e-05 0)
(0.00301874 1.63735e-05 0)
(0.00301807 1.994e-05 0)
(0.00301725 2.38143e-05 0)
(0.00301629 2.8057e-05 0)
(0.00301515 3.27343e-05 0)
(0.00301382 3.79164e-05 0)
(0.00301228 4.36821e-05 0)
(0.00301049 5.01259e-05 0)
(0.00300843 5.73393e-05 0)
(0.00300606 6.54326e-05 0)
(0.00300334 7.45268e-05 0)
(0.00300019 8.47597e-05 0)
(0.0029966 9.62764e-05 0)
(0.00299243 0.000109265 0)
(0.0029877 0.000123886 0)
(0.00298216 0.000140393 0)
(0.0029759 0.000158957 0)
(0.0029685 0.000179937 0)
(0.0029602 0.00020347 0)
(0.00295024 0.000230113 0)
(0.00293918 0.000259863 0)
(0.00292566 0.000293631 0)
(0.00291083 0.000331048 0)
(0.00289237 0.000373736 0)
(0.00287231 0.000420443 0)
(0.00284693 0.000474214 0)
(0.00281953 0.000531864 0)
(0.00278455 0.000599257 0)
(0.00274666 0.000669271 0)
(0.00269854 0.00075312 0)
(0.00264551 0.000836248 0)
(0.00257979 0.000939181 0)
(0.00250499 0.00103519 0)
(0.00241633 0.00115785 0)
(0.00231144 0.00126644 0)
(0.00219306 0.00140265 0)
(0.00205117 0.00152679 0)
(0.00189188 0.00166194 0)
(0.00170623 0.00178958 0)
(0.00149965 0.00191514 0)
(0.00126719 0.00202909 0)
(0.00101408 0.00212917 0)
(0.000739751 0.00220917 0)
(0.000450954 0.00226546 0)
(0.00015118 0.00229445 0)
(0.00302309 1.41684e-06 0)
(0.00302303 4.27788e-06 0)
(0.00302291 7.2064e-06 0)
(0.00302273 1.02428e-05 0)
(0.00302249 1.34416e-05 0)
(0.00302217 1.68493e-05 0)
(0.00302178 2.0518e-05 0)
(0.00302131 2.45051e-05 0)
(0.00302074 2.88755e-05 0)
(0.00302007 3.36975e-05 0)
(0.00301929 3.90398e-05 0)
(0.00301838 4.49883e-05 0)
(0.00301731 5.16379e-05 0)
(0.00301608 5.90828e-05 0)
(0.00301465 6.74444e-05 0)
(0.003013 7.68458e-05 0)
(0.00301108 8.74352e-05 0)
(0.00300887 9.93678e-05 0)
(0.00300626 0.000112832 0)
(0.0030033 0.000128007 0)
(0.00299975 0.000145163 0)
(0.00299576 0.000164487 0)
(0.00299087 0.000186353 0)
(0.00298546 0.000210944 0)
(0.00297865 0.000238813 0)
(0.00297127 0.000270044 0)
(0.00296164 0.000305519 0)
(0.00295152 0.000345044 0)
(0.0029377 0.000390112 0)
(0.00292372 0.000439868 0)
(0.00290367 0.000496935 0)
(0.00288414 0.000559062 0)
(0.00285486 0.000630953 0)
(0.00282717 0.000707618 0)
(0.00278453 0.000797402 0)
(0.00274427 0.000890465 0)
(0.00268327 0.00100084 0)
(0.00262236 0.00111145 0)
(0.00253884 0.00124288 0)
(0.00244246 0.00137168 0)
(0.00233505 0.00151858 0)
(0.00218778 0.00166685 0)
(0.00203272 0.00182265 0)
(0.00183949 0.0019768 0)
(0.00162725 0.00212734 0)
(0.0013802 0.00226713 0)
(0.00110969 0.00239076 0)
(0.000811709 0.00249114 0)
(0.000496171 0.00256217 0)
(0.000166422 0.00259902 0)
(0.00302591 1.43633e-06 0)
(0.00302589 4.33148e-06 0)
(0.00302586 7.2957e-06 0)
(0.00302582 1.03756e-05 0)
(0.00302575 1.36156e-05 0)
(0.00302567 1.70688e-05 0)
(0.00302557 2.0788e-05 0)
(0.00302544 2.48321e-05 0)
(0.00302529 2.92627e-05 0)
(0.0030251 3.41522e-05 0)
(0.00302488 3.95791e-05 0)
(0.00302461 4.56196e-05 0)
(0.0030243 5.23732e-05 0)
(0.00302392 5.99429e-05 0)
(0.00302346 6.84512e-05 0)
(0.00302292 7.80235e-05 0)
(0.00302224 8.88146e-05 0)
(0.00302147 0.000100984 0)
(0.00302048 0.000114731 0)
(0.00301936 0.000130249 0)
(0.00301788 0.000147807 0)
(0.00301624 0.00016762 0)
(0.00301399 0.000190077 0)
(0.00301157 0.000215382 0)
(0.00300811 0.000244122 0)
(0.00300449 0.000276406 0)
(0.00299911 0.000313193 0)
(0.00299366 0.000354277 0)
(0.00298521 0.000401358 0)
(0.0029769 0.000453401 0)
(0.00296364 0.000513652 0)
(0.00295075 0.00057904 0)
(0.00293001 0.000656164 0)
(0.00290965 0.000737176 0)
(0.00287758 0.000836038 0)
(0.00284472 0.00093402 0)
(0.00279618 0.00106102 0)
(0.00274199 0.00117498 0)
(0.00267114 0.00133706 0)
(0.0025814 0.00146471 0)
(0.00248208 0.00165497 0)
(0.00234891 0.00182298 0)
(0.00219537 0.00200553 0)
(0.00200458 0.00218766 0)
(0.00178394 0.00236713 0)
(0.00152513 0.00253735 0)
(0.00123342 0.00268777 0)
(0.000907598 0.00281141 0)
(0.000556585 0.00289894 0)
(0.000187255 0.00294472 0)
(0.00302874 1.43629e-06 0)
(0.00302877 4.32462e-06 0)
(0.00302883 7.27901e-06 0)
(0.00302892 1.03486e-05 0)
(0.00302904 1.35814e-05 0)
(0.00302919 1.70296e-05 0)
(0.00302938 2.07429e-05 0)
(0.00302961 2.47805e-05 0)
(0.00302987 2.92087e-05 0)
(0.00303017 3.40947e-05 0)
(0.00303051 3.9518e-05 0)
(0.00303091 4.55607e-05 0)
(0.00303134 5.23218e-05 0)
(0.00303183 5.99039e-05 0)
(0.00303235 6.84257e-05 0)
(0.00303294 7.80278e-05 0)
(0.00303356 8.88571e-05 0)
(0.00303424 0.000101081 0)
(0.00303492 0.000114908 0)
(0.00303569 0.000130534 0)
(0.00303635 0.000148239 0)
(0.00303715 0.000168255 0)
(0.00303764 0.000190964 0)
(0.00303839 0.000216625 0)
(0.0030384 0.000245804 0)
(0.00303891 0.000278713 0)
(0.00303789 0.000316236 0)
(0.00303785 0.000358407 0)
(0.00303475 0.000406695 0)
(0.00303367 0.000460609 0)
(0.00302668 0.000522788 0)
(0.00302368 0.000591414 0)
(0.0030097 0.000671504 0)
(0.0030033 0.000758141 0)
(0.00297727 0.000861294 0)
(0.00296456 0.000969087 0)
(0.00291921 0.0011016 0)
(0.00289266 0.00123257 0)
(0.00282255 0.00139985 0)
(0.00275375 0.00155534 0)
(0.00268585 0.00174527 0)
(0.00253104 0.00194529 0)
(0.00238979 0.0021581 0)
(0.00219356 0.00237719 0)
(0.00196966 0.00259476 0)
(0.00169417 0.00280379 0)
(0.00137804 0.00299343 0)
(0.00101848 0.0031519 0)
(0.000626694 0.00326582 0)
(0.000211242 0.00332573 0)
(0.00303154 1.40777e-06 0)
(0.00303162 4.24506e-06 0)
(0.00303177 7.15054e-06 0)
(0.00303199 1.0168e-05 0)
(0.00303229 1.33451e-05 0)
(0.00303268 1.67335e-05 0)
(0.00303316 2.03828e-05 0)
(0.00303373 2.43564e-05 0)
(0.00303441 2.87124e-05 0)
(0.00303519 3.35211e-05 0)
(0.0030361 3.88594e-05 0)
(0.00303715 4.48112e-05 0)
(0.00303833 5.14742e-05 0)
(0.00303969 5.89497e-05 0)
(0.0030412 6.73617e-05 0)
(0.00304292 7.684e-05 0)
(0.00304482 8.75457e-05 0)
(0.00304698 9.96419e-05 0)
(0.00304932 0.000113335 0)
(0.00305199 0.000128834 0)
(0.00305481 0.000146407 0)
(0.00305807 0.000166316 0)
(0.00306136 0.000188939 0)
(0.00306527 0.000214564 0)
(0.0030689 0.000243745 0)
(0.00307346 0.000276773 0)
(0.00307713 0.00031449 0)
(0.00308224 0.000357081 0)
(0.00308529 0.000405938 0)
(0.00309058 0.000460826 0)
(0.00309171 0.000524279 0)
(0.00309637 0.000594826 0)
(0.00309326 0.000677569 0)
(0.00309548 0.000767539 0)
(0.00308412 0.000876336 0)
(0.00308001 0.00098867 0)
(0.00305417 0.00113505 0)
(0.00303402 0.00126654 0)
(0.00298719 0.00147806 0)
(0.00291962 0.00159556 0)
(0.00286389 0.00187723 0)
(0.00275313 0.00211372 0)
(0.00261825 0.00233938 0)
(0.00243212 0.0026012 0)
(0.00220165 0.00285926 0)
(0.00191549 0.00311929 0)
(0.00157427 0.00335221 0)
(0.00117432 0.00354945 0)
(0.000726801 0.00369158 0)
(0.000245915 0.0037672 0)
(0.00303428 1.35964e-06 0)
(0.00303439 4.10613e-06 0)
(0.00303462 6.91537e-06 0)
(0.00303498 9.83167e-06 0)
(0.00303546 1.29046e-05 0)
(0.00303609 1.61804e-05 0)
(0.00303685 1.97145e-05 0)
(0.00303776 2.35588e-05 0)
(0.00303884 2.77779e-05 0)
(0.0030401 3.24342e-05 0)
(0.00304157 3.76054e-05 0)
(0.00304325 4.33773e-05 0)
(0.00304518 4.98384e-05 0)
(0.00304738 5.70959e-05 0)
(0.00304987 6.52649e-05 0)
(0.00305271 7.44783e-05 0)
(0.00305588 8.48882e-05 0)
(0.0030595 9.66644e-05 0)
(0.0030635 0.000110007 0)
(0.00306807 0.000125135 0)
(0.00307305 0.000142307 0)
(0.00307879 0.000161793 0)
(0.00308488 0.000183965 0)
(0.00309205 0.00020915 0)
(0.00309931 0.00023786 0)
(0.00310818 0.000270491 0)
(0.00311651 0.000307784 0)
(0.0031274 0.000350149 0)
(0.00313634 0.000398756 0)
(0.00314955 0.000453863 0)
(0.00315789 0.000517465 0)
(0.00317378 0.000589195 0)
(0.00317882 0.000672864 0)
(0.00319792 0.000766043 0)
(0.0031938 0.000877093 0)
(0.00321788 0.000996932 0)
(0.0031913 0.00114732 0)
(0.00322852 0.00129628 0)
(0.00314472 0.00151195 0)
(0.00323514 0.00167476 0)
(0.0031365 0.00189009 0)
(0.00290287 0.00192421 0)
(0.00282185 0.00219453 0)
(0.00267981 0.00249811 0)
(0.00248279 0.00281029 0)
(0.00221297 0.00313117 0)
(0.00186467 0.0034454 0)
(0.0014426 0.00373305 0)
(0.000957227 0.00396468 0)
(0.000423785 0.00411869 0)
(0.00303689 1.29396e-06 0)
(0.00303705 3.9037e-06 0)
(0.00303737 6.57215e-06 0)
(0.00303786 9.34526e-06 0)
(0.00303851 1.22653e-05 0)
(0.00303935 1.53807e-05 0)
(0.00304038 1.87436e-05 0)
(0.00304163 2.24005e-05 0)
(0.0030431 2.64178e-05 0)
(0.00304482 3.08504e-05 0)
(0.00304682 3.57757e-05 0)
(0.00304913 4.12748e-05 0)
(0.00305176 4.74341e-05 0)
(0.00305479 5.43553e-05 0)
(0.00305822 6.21509e-05 0)
(0.00306214 7.09546e-05 0)
(0.00306655 8.0907e-05 0)
(0.00307158 9.21762e-05 0)
(0.00307719 0.000104956 0)
(0.00308361 0.000119461 0)
(0.00309071 0.000135946 0)
(0.00309887 0.000154691 0)
(0.00310773 0.000176037 0)
(0.00311804 0.000200356 0)
(0.00312896 0.000228097 0)
(0.00314192 0.000259768 0)
(0.00315513 0.000295961 0)
(0.00317131 0.000337368 0)
(0.00318684 0.000384771 0)
(0.00320682 0.000439163 0)
(0.00322423 0.000501498 0)
(0.00324854 0.000573339 0)
(0.00326642 0.000655578 0)
(0.00329545 0.00075112 0)
(0.0033102 0.000859606 0)
(0.00334461 0.000988072 0)
(0.00334729 0.00112949 0)
(0.00339107 0.00130667 0)
(0.00335778 0.00148048 0)
(0.00343604 0.00174454 0)
(0.00347187 0.00192538 0)
(0.00317047 0.0020632 0)
(0.00311264 0.0023774 0)
(0.00299679 0.00272578 0)
(0.00281442 0.00309668 0)
(0.00255057 0.00347517 0)
(0.00216997 0.00386833 0)
(0.00169801 0.00423177 0)
(0.00113719 0.0045248 0)
(0.000505483 0.0047126 0)
(0.00303936 1.2057e-06 0)
(0.00303956 3.63711e-06 0)
(0.00303996 6.12702e-06 0)
(0.00304056 8.71495e-06 0)
(0.00304138 1.14427e-05 0)
(0.00304243 1.43486e-05 0)
(0.00304371 1.74838e-05 0)
(0.00304527 2.08996e-05 0)
(0.00304711 2.46489e-05 0)
(0.00304927 2.879e-05 0)
(0.00305178 3.33936e-05 0)
(0.00305467 3.85357e-05 0)
(0.00305799 4.42937e-05 0)
(0.00306179 5.07708e-05 0)
(0.00306612 5.80727e-05 0)
(0.00307107 6.6321e-05 0)
(0.00307666 7.56511e-05 0)
(0.00308304 8.62302e-05 0)
(0.00309021 9.8235e-05 0)
(0.00309842 0.000111878 0)
(0.00310755 0.000127399 0)
(0.00311805 0.000145082 0)
(0.00312959 0.00016524 0)
(0.00314303 0.000188267 0)
(0.00315748 0.000214567 0)
(0.00317463 0.000244692 0)
(0.0031925 0.000279172 0)
(0.00321436 0.00031881 0)
(0.00323602 0.000364264 0)
(0.00326385 0.000416751 0)
(0.00328928 0.000477058 0)
(0.00332464 0.00054709 0)
(0.00335289 0.000627629 0)
(0.0033977 0.000721916 0)
(0.00342581 0.000830095 0)
(0.00348214 0.000958577 0)
(0.00350324 0.0011038 0)
(0.00357221 0.00128247 0)
(0.00357347 0.00147194 0)
(0.00364719 0.00173324 0)
(0.00379555 0.00192104 0)
(0.00347553 0.00215827 0)
(0.00345341 0.0025132 0)
(0.00337343 0.00291752 0)
(0.00322191 0.0033609 0)
(0.003 0.00378903 0)
(0.00256129 0.00430594 0)
(0.00203613 0.00478775 0)
(0.00138237 0.00517938 0)
(0.000617356 0.0054283 0)
(0.00304164 1.09943e-06 0)
(0.00304187 3.31884e-06 0)
(0.00304234 5.59264e-06 0)
(0.00304306 7.95113e-06 0)
(0.00304403 1.04383e-05 0)
(0.00304527 1.30962e-05 0)
(0.00304679 1.59579e-05 0)
(0.00304864 1.9075e-05 0)
(0.00305082 2.24985e-05 0)
(0.00305339 2.6283e-05 0)
(0.00305636 3.04919e-05 0)
(0.0030598 3.51939e-05 0)
(0.00306375 4.04614e-05 0)
(0.00306828 4.63902e-05 0)
(0.00307344 5.3076e-05 0)
(0.00307935 6.06303e-05 0)
(0.00308604 6.91871e-05 0)
(0.00309369 7.88967e-05 0)
(0.00310231 8.99237e-05 0)
(0.00311217 0.00010247 0)
(0.00312322 0.000116754 0)
(0.00313592 0.000133061 0)
(0.00315001 0.000151662 0)
(0.00316633 0.000172968 0)
(0.00318421 0.000197306 0)
(0.00320519 0.000225319 0)
(0.00322771 0.000257344 0)
(0.00325464 0.000294445 0)
(0.00328274 0.000336833 0)
(0.00331726 0.000386448 0)
(0.00335185 0.000442891 0)
(0.00339597 0.000510039 0)
(0.00343761 0.000585629 0)
(0.00349371 0.000677972 0)
(0.00354193 0.000779554 0)
(0.0036126 0.000909313 0)
(0.00366443 0.00104554 0)
(0.00375154 0.00123308 0)
(0.00379915 0.00141359 0)
(0.00389796 0.00169334 0)
(0.00410294 0.00187577 0)
(0.00381333 0.00219609 0)
(0.00384315 0.00259096 0)
(0.00381381 0.00306117 0)
(0.00369441 0.00362847 0)
(0.00351975 0.00433376 0)
(0.00310764 0.00499533 0)
(0.00248745 0.0056287 0)
(0.00165054 0.00616157 0)
(0.000633659 0.00648893 0)
(0.00304369 9.79145e-07 0)
(0.00304396 2.95169e-06 0)
(0.0030445 4.96854e-06 0)
(0.00304531 7.06675e-06 0)
(0.00304641 9.27664e-06 0)
(0.00304783 1.16366e-05 0)
(0.00304958 1.41831e-05 0)
(0.00305168 1.69555e-05 0)
(0.00305417 2.0002e-05 0)
(0.0030571 2.33687e-05 0)
(0.0030605 2.71138e-05 0)
(0.00306443 3.12989e-05 0)
(0.00306896 3.59924e-05 0)
(0.00307414 4.12779e-05 0)
(0.00308007 4.7236e-05 0)
(0.00308685 5.39781e-05 0)
(0.00309454 6.16179e-05 0)
(0.00310334 7.02917e-05 0)
(0.00311329 8.01505e-05 0)
(0.00312469 9.13783e-05 0)
(0.0031375 0.000104173 0)
(0.00315223 0.000118806 0)
(0.00316867 0.000135513 0)
(0.00318772 0.000154686 0)
(0.00320874 0.000176622 0)
(0.00323341 0.000201937 0)
(0.00326019 0.000230928 0)
(0.00329219 0.000264628 0)
(0.0033261 0.000303245 0)
(0.00336769 0.000348591 0)
(0.00341029 0.000400481 0)
(0.00346441 0.000462317 0)
(0.00351733 0.000532722 0)
(0.00358759 0.000618494 0)
(0.00365233 0.000714989 0)
(0.00374259 0.000836591 0)
(0.00382027 0.000969958 0)
(0.00393258 0.00114723 0)
(0.00402414 0.00133242 0)
(0.00415208 0.00159931 0)
(0.00441386 0.00177691 0)
(0.00418222 0.0021648 0)
(0.0042822 0.00258914 0)
(0.0043341 0.00310583 0)
(0.00430798 0.00372415 0)
(0.00426543 0.00461965 0)
(0.00390081 0.00548305 0)
(0.00324273 0.00638103 0)
(0.0022359 0.00718775 0)
(0.00090762 0.00770871 0)
(0.00304549 8.41186e-07 0)
(0.00304578 2.5342e-06 0)
(0.00304638 4.27058e-06 0)
(0.00304728 6.07425e-06 0)
(0.0030485 7.97365e-06 0)
(0.00305007 9.99888e-06 0)
(0.003052 1.21863e-05 0)
(0.00305434 1.45731e-05 0)
(0.0030571 1.71917e-05 0)
(0.00306035 2.00886e-05 0)
(0.00306412 2.33104e-05 0)
(0.00306849 2.6913e-05 0)
(0.00307352 3.09561e-05 0)
(0.00307929 3.55057e-05 0)
(0.00308588 4.0641e-05 0)
(0.00309343 4.64552e-05 0)
(0.00310202 5.30419e-05 0)
(0.00311183 6.0531e-05 0)
(0.00312296 6.90419e-05 0)
(0.0031357 7.87532e-05 0)
(0.00315008 8.98273e-05 0)
(0.0031666 0.000102502 0)
(0.00318514 0.00011698 0)
(0.00320659 0.000133646 0)
(0.00323047 0.000152706 0)
(0.00325836 0.000174788 0)
(0.0032891 0.000200053 0)
(0.00332545 0.000229623 0)
(0.00336496 0.00026338 0)
(0.00341246 0.00030349 0)
(0.00346321 0.000349005 0)
(0.00352545 0.000404328 0)
(0.00359054 0.000466361 0)
(0.00367217 0.000544294 0)
(0.00375549 0.000629918 0)
(0.00386226 0.000742514 0)
(0.00396861 0.000862691 0)
(0.00410644 0.00102994 0)
(0.0042418 0.00120304 0)
(0.00441287 0.00145763 0)
(0.00471413 0.00161771 0)
(0.0045707 0.00205316 0)
(0.00475967 0.00249373 0)
(0.00492266 0.00304882 0)
(0.00503126 0.003746 0)
(0.00516355 0.00478302 0)
(0.00494329 0.0059128 0)
(0.0043222 0.00719645 0)
(0.00312535 0.00847487 0)
(0.00132612 0.00938268 0)
(0.00304699 6.89508e-07 0)
(0.00304731 2.07952e-06 0)
(0.00304795 3.50294e-06 0)
(0.00304893 4.98339e-06 0)
(0.00305026 6.5455e-06 0)
(0.00305196 8.20971e-06 0)
(0.00305405 1.00046e-05 0)
(0.00305658 1.19631e-05 0)
(0.00305957 1.41134e-05 0)
(0.00306309 1.64936e-05 0)
(0.00306718 1.91417e-05 0)
(0.00307192 2.21022e-05 0)
(0.00307737 2.54258e-05 0)
(0.00308363 2.91665e-05 0)
(0.00309079 3.33927e-05 0)
(0.00309899 3.8177e-05 0)
(0.00310833 4.36029e-05 0)
(0.00311901 4.97743e-05 0)
(0.00313114 5.67933e-05 0)
(0.00314503 6.48073e-05 0)
(0.00316075 7.39466e-05 0)
(0.00317882 8.44268e-05 0)
(0.00319916 9.64065e-05 0)
(0.0032227 0.000110214 0)
(0.00324903 0.000126026 0)
(0.00327978 0.000144378 0)
(0.00331388 0.000165414 0)
(0.0033542 0.000190077 0)
(0.00339842 0.000218338 0)
(0.00345154 0.000251937 0)
(0.00350903 0.000290333 0)
(0.00357932 0.000336917 0)
(0.00365438 0.000389834 0)
(0.00374773 0.000455855 0)
(0.00384642 0.000530074 0)
(0.00397052 0.000626213 0)
(0.00410172 0.000732735 0)
(0.00426584 0.000877226 0)
(0.00444292 0.00103519 0)
(0.0046568 0.00125967 0)
(0.00499271 0.00139003 0)
(0.00496168 0.00185115 0)
(0.00525485 0.00228496 0)