/*--------------------------------*- C++ -*----------------------------------*\
| =========                 |                                                 |
| \\      /  F ield         | foam-extend: Open Source CFD                    |
|  \\    /   O peration     | Version:     4.0                                |
|   \\  /    A nd           | Web:         http://www.foam-extend.org         |
|    \\/     M anipulation  |                                                 |
\*---------------------------------------------------------------------------*/
FoamFile
{
    version     2.0;
    format      ascii;
    class       volScalarField;
    location    "0.0002";
    object      k;
}
// * * * * * * * * * * * * * * * * * * * * * * * * * * * * * * * * * * * * * //

dimensions      [0 2 -2 0 0 0 0];

internalField   nonuniform List<scalar> 
28770
(
3.52572e-05
8.05266e-05
0.000114625
0.000146687
0.000170292
0.000188931
0.000203055
0.000213354
0.000220611
0.000225547
0.000228789
0.000230845
0.000232105
0.000232849
0.000233272
0.000233504
0.000233627
0.000233688
0.000233718
0.000233731
0.000233736
0.000233738
0.000233737
0.000233736
0.000233729
0.000233719
0.000233698
0.000233659
0.000233586
0.000233449
0.000233201
0.000232761
0.000232003
0.00023073
0.000228659
0.000225392
0.000220416
0.000213106
0.000202785
0.000188826
0.000170814
0.000148754
0.000123272
9.57398e-05
6.82232e-05
4.31873e-05
2.29662e-05
9.1405e-06
2.02814e-06
1.49747e-07
0.0010625
0.00240569
0.00340565
0.00434301
0.00504715
0.00559696
0.00601328
0.00631713
0.00653131
0.00667704
0.0067728
0.00683357
0.00687081
0.00689283
0.00690539
0.00691228
0.00691591
0.00691775
0.00691863
0.00691903
0.00691918
0.00691923
0.00691921
0.00691917
0.00691897
0.00691868
0.00691805
0.0069169
0.00691471
0.00691065
0.00690329
0.00689025
0.00686773
0.00682995
0.00676844
0.00667145
0.00652367
0.00630658
0.00600006
0.00558545
0.00505046
0.00439524
0.0036385
0.00282118
0.00200493
0.00126331
0.00066589
0.000259477
5.31322e-05
2.19315e-06
0.00687409
0.0164768
0.0232752
0.0294027
0.0341708
0.0378661
0.0406521
0.042684
0.0441168
0.0450926
0.0457343
0.0461422
0.0463925
0.0465408
0.0466257
0.0466724
0.0466972
0.0467098
0.0467159
0.0467187
0.0467198
0.0467201
0.04672
0.0467197
0.0467184
0.0467164
0.0467122
0.0467043
0.0466894
0.0466617
0.0466114
0.0465224
0.0463687
0.0461109
0.0456911
0.0450293
0.0440208
0.0425395
0.0404478
0.0376185
0.0339674
0.0294958
0.0243323
0.0187591
0.0132028
0.0081755
0.00416617
0.00151218
0.00026954
9.99262e-06
0.0215635
0.0552807
0.0791387
0.0993745
0.115331
0.127689
0.136985
0.143756
0.14853
0.151782
0.153924
0.155287
0.156126
0.156624
0.15691
0.157068
0.157152
0.157195
0.157216
0.157226
0.15723
0.157231
0.157231
0.15723
0.157226
0.157218
0.157204
0.157177
0.157125
0.15703
0.156857
0.15655
0.15602
0.155132
0.153687
0.15141
0.147945
0.142859
0.135685
0.12599
0.11349
0.0981948
0.0805525
0.0615442
0.0426651
0.0257369
0.0125341
0.00423291
0.000696226
2.49491e-05
0.0467914
0.126174
0.184537
0.231947
0.269141
0.297842
0.319387
0.335057
0.3461
0.353628
0.35859
0.361753
0.363703
0.364864
0.365533
0.365904
0.366103
0.366206
0.366256
0.36628
0.36629
0.366293
0.366292
0.366289
0.36628
0.366262
0.366228
0.366162
0.366037
0.365806
0.365386
0.364643
0.363361
0.361214
0.357725
0.352238
0.3439
0.331687
0.314494
0.291312
0.261499
0.225127
0.183328
0.138532
0.09443
0.0555082
0.0260239
0.00837258
0.00132046
4.65018e-05
0.0820694
0.22803
0.340462
0.430279
0.500152
0.553709
0.593762
0.622832
0.643294
0.657246
0.666451
0.672326
0.675955
0.678122
0.679374
0.680072
0.680447
0.680642
0.680739
0.680785
0.680804
0.680811
0.680809
0.680803
0.680785
0.68075
0.680683
0.680555
0.680312
0.67986
0.679041
0.67759
0.675091
0.67091
0.664129
0.653482
0.63734
0.613758
0.580662
0.536191
0.479233
0.410092
0.331158
0.247337
0.165908
0.0954499
0.0435624
0.0136125
0.00209731
7.30456e-05
0.125358
0.353114
0.535811
0.681944
0.795188
0.881453
0.94569
0.992181
1.02485
1.04711
1.0618
1.07119
1.077
1.08048
1.08249
1.08362
1.08423
1.08455
1.0847
1.08478
1.08481
1.08482
1.08482
1.08481
1.08478
1.08472
1.08461
1.08439
1.08398
1.08322
1.08185
1.07941
1.07521
1.06819
1.05684
1.03906
1.01217
0.973024
0.918287
0.845059
0.751762
0.639247
0.511878
0.378138
0.250156
0.141566
0.0634611
0.0194921
0.00296238
0.000102401
0.173496
0.490088
0.75209
0.963601
1.12784
1.25253
1.34507
1.41188
1.45872
1.49062
1.51167
1.52513
1.53347
1.53847
1.54138
1.54301
1.54389
1.54436
1.54459
1.5447
1.54475
1.54476
1.54476
1.54474
1.5447
1.54461
1.54444
1.54412
1.5435
1.54235
1.54028
1.53661
1.5303
1.51979
1.5028
1.47628
1.43632
1.37834
1.29763
1.19018
1.05407
0.891052
0.708132
0.518215
0.339023
0.189544
0.0839708
0.025527
0.00384765
0.000132323
0.222984
0.627341
0.969437
1.24862
1.46687
1.63262
1.75541
1.84393
1.90591
1.94806
1.97587
1.99367
2.00471
2.01134
2.0152
2.01737
2.01855
2.01917
2.01948
2.01963
2.0197
2.01972
2.01971
2.01969
2.01963
2.0195
2.01927
2.01882
2.01796
2.01638
2.01352
2.00847
1.99981
1.9854
1.96218
1.92605
1.8718
1.79342
1.68479
1.54085
1.35948
1.14359
0.903201
0.656057
0.425585
0.23589
0.103693
0.0313247
0.00469764
0.000161024
0.270521
0.755358
1.17079
1.51386
1.78461
1.99074
2.14342
2.25347
2.33048
2.38282
2.41736
2.43946
2.45318
2.46144
2.46625
2.46896
2.47044
2.47122
2.47161
2.4718
2.47189
2.47191
2.4719
2.47187
2.47178
2.47162
2.47132
2.47074
2.46964
2.46761
2.46394
2.45748
2.44642
2.42807
2.3986
2.3529
2.28454
2.18618
2.05043
1.87128
1.64643
1.37993
1.08481
0.783746
0.505392
0.278492
0.121815
0.0366578
0.00547871
0.000187299
0.313373
0.867254
1.34575
1.74498
2.06233
2.30531
2.48554
2.61557
2.7066
2.76847
2.8093
2.83545
2.8517
2.86148
2.86719
2.87041
2.87218
2.87311
2.87358
2.8738
2.8739
2.87393
2.87392
2.87387
2.87376
2.87356
2.87318
2.87247
2.87114
2.86868
2.86425
2.85647
2.84318
2.8212
2.78601
2.73163
2.65063
2.53456
2.37495
2.16499
1.902
1.5907
1.24669
0.897802
0.576913
0.316863
0.138246
0.0415272
0.00619188
0.000210687
0.349875
0.96024
1.49053
1.93474
2.29083
2.56568
2.76991
2.91742
3.02081
3.09112
3.13755
3.1673
3.1858
3.19695
3.20347
3.20716
3.20917
3.21024
3.21078
3.21104
3.21115
3.21118
3.21116
3.21109
3.21095
3.21071
3.21026
3.20942
3.20788
3.20504
3.19995
3.19103
3.17583
3.15077
3.11079
3.04926
2.958
2.8278
2.64944
2.41543
2.12246
1.77469
1.38876
0.999015
0.641361
0.352076
0.15364
0.046207
0.00690363
0.000234554
0.379301
1.03381
1.60428
2.08341
2.47041
2.77071
2.99462
3.15659
3.27031
3.34772
3.39888
3.43169
3.45211
3.46443
3.47164
3.47573
3.47797
3.47915
3.47975
3.48003
3.48015
3.48017
3.48014
3.48004
3.47988
3.47958
3.47906
3.47811
3.47637
3.47322
3.46758
3.45774
3.44103
3.41356
3.3699
3.303
3.20428
3.06423
2.87338
2.62396
2.31182
1.93848
1.51704
1.09226
0.702402
0.386453
0.169069
0.0510004
0.00767379
0.000265303
0.401878
1.08961
1.69015
2.19585
2.60545
2.92489
3.16437
3.33777
3.45971
3.54282
3.5978
3.63309
3.65508
3.66836
3.67614
3.68055
3.68297
3.68425
3.68489
3.68519
3.68531
3.68532
3.68527
3.68514
3.68493
3.68458
3.68397
3.68291
3.68101
3.67759
3.67152
3.66098
3.64313
3.61388
3.56759
3.497
3.39353
3.24792
3.0513
2.79655
2.47932
2.09552
1.64525
1.18945
0.769253
0.425966
0.187299
0.0564467
0.00837972
0.000282803
0.418406
1.13021
1.75254
2.2776
2.70298
3.03637
3.28757
3.46962
3.59782
3.6853
3.74323
3.78045
3.80365
3.81769
3.82591
3.83058
3.83315
3.8345
3.83518
3.83549
3.8356
3.8356
3.83551
3.83534
3.83507
3.83464
3.83394
3.83276
3.8307
3.82706
3.82065
3.80957
3.79089
3.76036
3.7122
3.63914
3.53293
3.38528
3.18919
2.94
2.63524
2.25391
1.78304
1.30443
0.857865
0.485283
0.219031
0.0679453
0.0103103
0.0003293
0.430008
1.15865
1.79622
2.33483
2.77116
3.11434
3.37381
3.56212
3.69488
3.78558
3.84569
3.88436
3.90848
3.92309
3.93165
3.93652
3.93919
3.9406
3.9413
3.94162
3.94171
3.94168
3.94154
3.94131
3.94097
3.94045
3.93964
3.93832
3.93609
3.93224
3.92555
3.91405
3.89472
3.86319
3.81355
3.73851
3.63022
3.48197
3.29049
3.05748
2.87903
2.44839
1.96831
1.47445
1.0123
0.608443
0.300576
0.108972
0.0222604
0.00103256
0.437852
1.1779
1.82581
2.37365
2.81753
3.1672
3.43224
3.62494
3.76091
3.8539
3.91559
3.9553
3.9801
3.99512
4.00394
4.00896
4.01171
4.01316
4.01387
4.01418
4.01425
4.01417
4.01398
4.01367
4.01323
4.01259
4.01164
4.01016
4.00774
4.00368
3.99672
3.98485
3.96497
3.93256
3.8815
3.80421
3.69267
3.54105
3.34954
3.11927
2.86244
2.46497
1.9548
1.46667
1.01365
0.612463
0.304159
0.111248
0.0227822
0.000962117
0.442994
1.19055
1.84529
2.39934
2.84835
3.20208
3.47071
3.66646
3.80463
3.89922
3.96202
4.00248
4.02776
4.04309
4.0521
4.05722
4.06003
4.0615
4.06222
4.06251
4.06255
4.06242
4.06215
4.06175
4.06118
4.06038
4.05925
4.05758
4.05495
4.05065
4.04342
4.03121
4.01085
3.97765
3.9252
3.84533
3.72875
3.56741
3.35961
3.10197
2.7992
2.36782
1.85558
1.38816
0.956086
0.568934
0.279469
0.102392
0.0210173
0.000873843
0.446292
1.1987
1.85787
2.41604
2.86852
3.22464
3.49552
3.69337
3.83304
3.92873
3.99231
4.03329
4.05893
4.07448
4.08362
4.08882
4.09167
4.09316
4.09387
4.09414
4.09413
4.09394
4.09359
4.09306
4.09234
4.09136
4.09002
4.08811
4.08523
4.08066
4.07316
4.06064
4.03984
4.00599
3.95248
3.87081
3.75089
3.58276
3.36259
3.09012
2.78466
2.31106
1.80272
1.34458
0.916965
0.468174
0.226239
0.0799937
0.015121
0.000480006
0.44838
1.20388
1.8659
2.42681
2.88159
3.23908
3.51134
3.71063
3.85131
3.94778
4.0119
4.05327
4.07916
4.09487
4.10412
4.10938
4.11226
4.11376
4.11446
4.1147
4.11464
4.11438
4.11392
4.11326
4.11236
4.11117
4.10958
4.10739
4.10423
4.09938
4.0916
4.07877
4.05761
4.02325
3.96894
3.88604
3.76431
3.59325
3.36849
3.09517
2.80249
2.31911
1.81418
1.35607
0.920861
0.47918
0.237311
0.0828803
0.0166341
0.000579107
0.449693
1.20714
1.87099
2.43369
2.89002
3.24827
3.52137
3.72165
3.86303
3.96004
4.02456
4.06621
4.0923
4.10814
4.11747
4.12278
4.12569
4.12718
4.12787
4.12808
4.12797
4.12763
4.12705
4.12624
4.12515
4.12372
4.12186
4.11938
4.11592
4.11077
4.1027
4.08961
4.0682
4.03353
3.97881
3.89537
3.77312
3.60187
3.37746
3.10821
2.82055
2.34678
1.84441
1.38319
0.94037
0.487231
0.238689
0.0844273
0.0174539
0.000603679
0.450507
1.20914
1.87412
2.43798
2.89533
3.25402
3.52763
3.72858
3.87045
3.96785
4.03268
4.07455
4.10079
4.11675
4.12615
4.1315
4.13442
4.13592
4.13659
4.13677
4.13661
4.13618
4.13549
4.13451
4.13322
4.13155
4.12941
4.12663
4.12285
4.11741
4.10908
4.09577
4.07419
4.0394
3.9846
3.90114
3.77912
3.60859
3.38536
3.11779
2.82907
2.36283
1.86213
1.40098
0.955176
0.49513
0.246693
0.0894976
0.018743
0.000630151
0.45099
1.21029
1.87586
2.44038
2.89837
3.25728
3.5312
3.73261
3.87483
3.97252
4.03758
4.07963
4.10601
4.12205
4.13151
4.1369
4.13984
4.14134
4.142
4.14215
4.14193
4.14143
4.14063
4.1395
4.13802
4.13612
4.13371
4.13064
4.12657
4.12086
4.11229
4.0988
4.0771
4.0423
3.98759
3.90439
3.78288
3.61328
3.39125
3.12469
2.83574
2.3705
1.87187
1.41277
0.967264
0.506778
0.254749
0.0951542
0.0187855
0.00119262
0.451255
1.21087
1.87667
2.44142
2.89972
3.25869
3.5327
3.73439
3.87688
3.97479
4.04003
4.08223
4.10872
4.12484
4.13435
4.13977
4.14273
4.14424
4.14489
4.145
4.14475
4.14418
4.14328
4.14204
4.14039
4.13829
4.13565
4.13234
4.12802
4.12208
4.11332
4.09968
4.07792
4.04314
3.98861
3.90575
3.78486
3.61622
3.39547
3.13051
2.84451
2.38034
1.88363
1.42496
0.979544
0.518089
0.264848
0.102016
0.0216726
0.00147469
0.451401
1.21127
1.8774
2.44242
2.901
3.26005
3.53402
3.73583
3.87851
3.97655
4.0419
4.08418
4.11073
4.12689
4.13644
4.14188
4.14484
4.14635
4.147
4.1471
4.14681
4.14619
4.14523
4.1439
4.14214
4.1399
4.1371
4.13362
4.12913
4.12303
4.11414
4.10042
4.07862
4.0439
3.98954
3.90706
3.78679
3.6192
3.39997
3.137
2.85323
2.39335
1.89808
1.43747
0.988572
0.520791
0.274174
0.110468
0.0346765
0.00362415
0.451153
1.21082
1.87699
2.44215
2.90092
3.26007
3.53393
3.73577
3.87859
3.97669
4.04209
4.08441
4.11098
4.12717
4.13672
4.14217
4.14514
4.14665
4.14728
4.14738
4.14708
4.14644
4.14546
4.14408
4.14227
4.13998
4.13712
4.13358
4.12904
4.12288
4.11393
4.10017
4.07834
4.04362
3.98931
3.90692
3.78687
3.61973
3.40133
3.13929
2.85515
2.40143
1.9068
1.44429
0.992531
0.525362
0.277464
0.115368
0.039503
0.00681734
0.451107
1.21074
1.877
2.4423
2.90119
3.26037
3.53431
3.73615
3.87891
3.97697
4.04233
4.08461
4.11115
4.1273
4.13684
4.14227
4.14523
4.14674
4.14738
4.14747
4.14719
4.14656
4.14559
4.14424
4.14246
4.1402
4.1374
4.13391
4.12943
4.12333
4.11443
4.1007
4.0789
4.04417
3.98981
3.9073
3.787
3.61946
3.40057
3.13746
2.8491
2.39856
1.90336
1.4407
0.988561
0.521275
0.273431
0.11149
0.0352375
0.00412038
0.45094
1.21033
1.87627
2.44137
2.90006
3.25917
3.53312
3.73484
3.87747
3.97542
4.04069
4.08289
4.10937
4.12549
4.13499
4.1404
4.14336
4.14486
4.14551
4.14562
4.14536
4.14477
4.14386
4.14259
4.14091
4.13878
4.13612
4.13279
4.12848
4.12254
4.11377
4.10014
4.07837
4.04359
3.98905
3.90616
3.78519
3.61649
3.39588
3.13037
2.83854
2.38608
1.88988
1.42821
0.977238
0.511328
0.264166
0.102709
0.0284474
0.00154267
0.450923
1.2102
1.87585
2.44058
2.89885
3.25778
3.53159
3.73302
3.87541
3.97316
4.03826
4.08034
4.10673
4.12278
4.13224
4.13763
4.14057
4.14208
4.14274
4.14287
4.14265
4.14213
4.14131
4.14016
4.13864
4.13671
4.13427
4.13119
4.12711
4.1214
4.11283
4.09935
4.07766
4.04286
3.98816
3.90491
3.78325
3.61337
3.39095
3.12351
2.83013
2.37327
1.87535
1.41386
0.963463
0.499433
0.254162
0.0950168
0.0246213
0.00120919
0.450389
1.20893
1.87388
2.4379
2.89548
3.2541
3.52762
3.7286
3.87066
3.96815
4.03305
4.07498
4.10127
4.11725
4.12666
4.13203
4.13496
4.13647
4.13714
4.13731
4.13714
4.13669
4.13598
4.13498
4.13366
4.13195
4.12979
4.12698
4.1232
4.11775
4.10942
4.09611
4.07451
4.03969
3.98483
3.90124
3.77901
3.60824
3.38448
3.11574
2.82365
2.36493
1.86563
1.4024
0.951173
0.487995
0.245253
0.0891747
0.0190225
0.000651239
0.449502
1.20672
1.87044
2.4333
2.8898
3.2479
3.52093
3.72127
3.86289
3.96003
4.02467
4.06641
4.09257
4.10847
4.11784
4.12318
4.1261
4.12761
4.12831
4.12851
4.1284
4.12804
4.12744
4.1266
4.12548
4.12402
4.12213
4.11964
4.11616
4.11101
4.10293
4.08982
4.06836
4.03358
3.97867
3.89492
3.77242
3.60123
3.37686
3.10778
2.81313
2.35671
1.85521
1.39052
0.939597
0.478904
0.236648
0.0832358
0.0170363
0.000610881
0.448102
1.20323
1.86501
2.42609
2.88098
3.23821
3.51046
3.70986
3.85082
3.94748
4.01178
4.05329
4.07929
4.09509
4.1044
4.10971
4.11262
4.11414
4.11485
4.11509
4.11504
4.11476
4.11428
4.1136
4.11267
4.11145
4.10984
4.10764
4.10447
4.09961
4.0918
4.07893
4.05765
4.02303
3.96828
3.88474
3.76254
3.59164
3.36691
3.09461
2.7902
2.33433
1.83144
1.36862
0.923802
0.473765
0.235408
0.0822897
0.0161931
0.000573203
0.445934
1.19782
1.85663
2.41499
2.8675
3.22328
3.49422
3.69226
3.83224
3.92819
3.992
4.03319
4.05898
4.07465
4.08389
4.08915
4.09205
4.09357
4.0943
4.09458
4.09458
4.09438
4.09401
4.09347
4.09272
4.09173
4.09037
4.08844
4.08555
4.08098
4.07344
4.06082
4.0398
4.00549
3.9512
3.86843
3.74756
3.57878
3.3568
3.08591
2.78015
2.30713
1.79932
1.34052
0.907195
0.461255
0.223622
0.0789786
0.0149618
0.00047211
0.442604
1.18955
1.84382
2.39805
2.847
3.20034
3.46908
3.66511
3.80361
3.89851
3.96161
4.00232
4.02781
4.0433
4.05243
4.05765
4.06052
4.06204
4.06278
4.06309
4.06313
4.063
4.06273
4.06231
4.06173
4.06092
4.05978
4.0581
4.05547
4.05116
4.0439
4.03156
4.01088
3.97706
3.92356
3.8422
3.72389
3.55968
3.34549
3.08642
2.81233
2.31362
1.80293
1.34289
0.918153
0.535525
0.259188
0.0948967
0.0193991
0.000821446
0.437531
1.17698
1.82439
2.37237
2.81606
3.16533
3.43046
3.62349
3.75979
3.85314
3.91517
3.95518
3.98024
3.99547
4.00445
4.00958
4.01242
4.01392
4.01468
4.015
4.01509
4.01501
4.01482
4.01451
4.01405
4.01341
4.01246
4.01098
4.00859
4.00453
3.99753
3.98552
3.96528
3.93212
3.87972
3.80033
3.68567
3.52866
3.3297
3.10552
2.8901
2.40807
1.88874
1.41316
0.975363
0.586824
0.290032
0.105343
0.0213885
0.000884193
0.42992
1.15819
1.79534
2.334
2.76996
3.1127
3.37216
3.5608
3.69387
3.78493
3.84541
3.88441
3.90883
3.92368
3.93244
3.93745
3.94022
3.9417
3.94245
3.9428
3.94291
3.94288
3.94275
3.94252
3.94217
3.94166
3.94086
3.93957
3.93738
3.93355
3.92685
3.91523
3.89553
3.86322
3.81216
3.73492
3.62374
3.47261
3.28441
3.08101
2.84783
2.49075
1.98899
1.48993
1.02821
0.620592
0.307148
0.111462
0.0226479
0.000961453
0.418767
1.13073
1.75286
2.27784
2.70254
3.03543
3.28646
3.46875
3.59717
3.68496
3.74324
3.78081
3.80433
3.81863
3.82708
3.83191
3.8346
3.83604
3.83677
3.83712
3.83725
3.83726
3.83718
3.83701
3.83675
3.83634
3.83567
3.83453
3.83253
3.82895
3.82257
3.81142
3.79245
3.76122
3.71179
3.63686
3.52868
3.38106
3.19721
3.00073
2.71648
2.29419
1.81941
1.33134
0.877361
0.496755
0.223796
0.069427
0.0105302
0.000337863
0.402917
1.09169
1.69241
2.19783
2.60641
2.92519
3.16432
3.33773
3.45971
3.54302
3.59828
3.63389
3.65619
3.66975
3.67776
3.68235
3.68491
3.68628
3.68699
3.68734
3.68748
3.68751
3.68746
3.68735
3.68715
3.68682
3.68626
3.68526
3.68344
3.68012
3.67414
3.6636
3.64557
3.6158
3.5685
3.49636
3.39082
3.24224
3.04522
2.81782
2.53329
2.14922
1.70115
1.23766
0.804971
0.447578
0.197545
0.0599404
0.00896936
0.000304451
0.381211
1.03802
1.60912
2.08776
2.47345
2.77278
2.99609
3.1577
3.2712
3.34863
3.39995
3.43301
3.4537
3.4663
3.47374
3.47801
3.48039
3.48168
3.48235
3.48268
3.48282
3.48287
3.48284
3.48277
3.48262
3.48235
3.48188
3.48101
3.47939
3.47637
3.47088
3.46112
3.44434
3.41654
3.37224
3.30458
3.20551
3.06498
2.87148
2.62891
2.32936
1.96234
1.54719
1.12028
0.724315
0.400234
0.175499
0.0528906
0.00788839
0.000268191
0.3527
0.96681
1.49825
1.94174
2.29633
2.56983
2.77314
2.91986
3.02272
3.09281
3.13923
3.16913
3.18784
3.19923
3.20596
3.20983
3.21199
3.21316
3.21377
3.21408
3.21422
3.21427
3.21426
3.21421
3.2141
3.21389
3.2135
3.21276
3.21134
3.20868
3.20377
3.19499
3.17982
3.15453
3.11397
3.0516
2.95992
2.83013
2.65098
2.41872
2.13015
1.78615
1.40328
1.01232
0.651817
0.358698
0.156709
0.0470863
0.00701259
0.00023842
0.316971
0.876002
1.3562
1.75454
2.07026
2.31159
2.49048
2.61929
2.70948
2.77088
2.81152
2.83769
2.85407
2.86403
2.86993
2.87332
2.87521
2.87624
2.87678
2.87705
2.87718
2.87723
2.87724
2.8772
2.87712
2.87696
2.87665
2.87603
2.87484
2.87257
2.86835
2.86076
2.84757
2.82547
2.78981
2.73453
2.6526
2.53614
2.3758
2.1658
1.90393
1.5941
1.2513
0.902094
0.580395
0.31907
0.139224
0.0417763
0.00621561
0.000211252
0.274469
0.765341
1.1831
1.52526
1.79438
1.99874
2.14969
2.2582
2.3341
2.38575
2.41993
2.44193
2.45569
2.46407
2.46902
2.47187
2.47347
2.47433
2.47479
2.47502
2.47513
2.47518
2.47519
2.47517
2.47511
2.47499
2.47475
2.47426
2.4733
2.47145
2.468
2.46174
2.45082
2.43243
2.4026
2.35605
2.2865
2.18698
2.04988
1.8696
1.64423
1.37783
1.08322
0.782596
0.504696
0.278011
0.121444
0.0364405
0.0054179
0.000184015
0.226658
0.636952
0.98212
1.26059
1.47742
1.64141
1.7623
1.84914
1.90987
1.9512
1.97854
1.99614
2.00714
2.01383
2.01779
2.02007
2.02134
2.02203
2.0224
2.02258
2.02268
2.02272
2.02272
2.02271
2.02267
2.02259
2.02241
2.02204
2.02132
2.0199
2.01723
2.01237
2.00384
1.98941
1.9659
1.92902
1.87355
1.79366
1.68325
1.53757
1.35487
1.1384
0.898277
0.652013
0.422696
0.234002
0.102582
0.0308204
0.00458078
0.000155468
0.176262
0.497599
0.763494
0.974787
1.13795
1.26104
1.35176
1.41696
1.46259
1.49365
1.51419
1.52739
1.53564
1.54066
1.54362
1.54533
1.54628
1.5468
1.54707
1.54721
1.54728
1.54731
1.54732
1.54731
1.54729
1.54723
1.54711
1.54686
1.54634
1.54534
1.54342
1.53991
1.53371
1.52317
1.50592
1.47876
1.43769
1.37821
1.29568
1.18636
1.04871
0.884904
0.702178
0.513312
0.33555
0.187319
0.082652
0.0249026
0.00370099
0.000125566
0.126803
0.357421
0.54463
0.69115
0.803731
0.888686
0.951412
0.996569
1.02819
1.04971
1.06394
1.07308
1.07878
1.08224
1.08428
1.08545
1.08611
1.08646
1.08665
1.08675
1.0868
1.08682
1.08683
1.08682
1.08681
1.08677
1.0867
1.08653
1.0862
1.08555
1.08429
1.08197
1.07785
1.0708
1.05922
1.04092
1.01312
0.972696
0.916396
0.841543
0.746897
0.633687
0.506536
0.373852
0.247279
0.139826
0.0623774
0.0188924
0.00280636
9.51834e-05
0.0822702
0.229413
0.346393
0.436895
0.5064
0.559026
0.598006
0.626118
0.645814
0.659208
0.668051
0.673721
0.677253
0.679392
0.680653
0.681377
0.68178
0.682
0.682116
0.682176
0.682205
0.68222
0.682224
0.682222
0.682215
0.682195
0.682152
0.68206
0.68187
0.681488
0.680751
0.679381
0.67693
0.672718
0.665765
0.654734
0.63793
0.613403
0.579147
0.533468
0.475519
0.405898
0.327211
0.244334
0.164143
0.0945902
0.0429933
0.0131636
0.00195264
6.59719e-05
0.0463019
0.126039
0.188108
0.235998
0.272969
0.301112
0.322023
0.337121
0.347693
0.354874
0.359606
0.362633
0.364515
0.365653
0.366322
0.366706
0.36692
0.367036
0.367097
0.367129
0.367144
0.367152
0.367154
0.367154
0.367151
0.367141
0.367121
0.367076
0.366982
0.366792
0.36642
0.365723
0.364468
0.362299
0.358701
0.352973
0.344222
0.331415
0.313489
0.28954
0.259097
0.222426
0.180813
0.136701
0.0935418
0.0553268
0.0259481
0.00814835
0.00121343
4.05461e-05
0.0211108
0.055099
0.0811061
0.101371
0.117172
0.129265
0.138268
0.144768
0.149315
0.152398
0.154426
0.15572
0.156524
0.157008
0.157293
0.157456
0.157547
0.157596
0.157622
0.157635
0.157642
0.157645
0.157646
0.157646
0.157645
0.157642
0.157634
0.157616
0.157579
0.157503
0.157352
0.157067
0.15655
0.155651
0.154152
0.151757
0.148087
0.142705
0.13516
0.125069
0.11223
0.0967507
0.0791594
0.0604699
0.0421104
0.02567
0.0126121
0.00417734
0.000642001
2.13799e-05
0.00676812
0.016623
0.0241417
0.0301049
0.0347966
0.0383987
0.0410825
0.0430198
0.0443742
0.0452919
0.0458948
0.0462794
0.0465178
0.0466614
0.0467457
0.0467939
0.0468207
0.0468352
0.0468429
0.0468468
0.0468488
0.0468499
0.0468502
0.0468502
0.0468499
0.0468491
0.0468471
0.0468425
0.0468324
0.0468112
0.0467686
0.0466872
0.0465382
0.0462771
0.0458395
0.0451373
0.0440585
0.0424734
0.0402489
0.0372725
0.0334863
0.0289224
0.023735
0.0182214
0.0128146
0.00799588
0.00413511
0.00148937
0.000249323
8.56248e-06
0.00108039
0.00249828
0.00359612
0.00447439
0.00516655
0.00569815
0.00609439
0.00638056
0.00658076
0.00671647
0.00680568
0.00686261
0.0068979
0.00691918
0.00693166
0.0069388
0.00694277
0.00694492
0.00694606
0.00694664
0.00694693
0.00694711
0.00694715
0.00694716
0.00694713
0.00694703
0.00694678
0.00694619
0.00694483
0.0069419
0.0069359
0.00692424
0.00690266
0.00686452
0.00680015
0.00669634
0.00653633
0.00630073
0.00596976
0.00552699
0.00496436
0.00428744
0.003519
0.00270104
0.00189718
0.00118737
0.000632124
0.000247081
4.78433e-05
1.80966e-06
3.73853e-05
8.59477e-05
0.000123118
0.000152751
0.000176073
0.00019397
0.000207306
0.000216937
0.000223676
0.000228246
0.000231252
0.000233171
0.000234361
0.000235079
0.0002355
0.000235741
0.000235875
0.000235948
0.000235987
0.000236006
0.000236016
0.000236023
0.000236024
0.000236025
0.000236024
0.000236021
0.000236014
0.000235997
0.000235955
0.000235863
0.000235669
0.000235287
0.000234571
0.000233294
0.000231124
0.000227606
0.000222162
0.000214123
0.00020281
0.000187663
0.000168421
0.000145326
0.000119217
9.14779e-05
6.4037e-05
3.96689e-05
2.10488e-05
8.46736e-06
1.79207e-06
1.16641e-07
2.63208e-05
6.8024e-07
3.68095e-08
2.05168e-09
1.04822e-10
6.84063e-12
6.29666e-13
1.4211e-13
1.16526e-13
1.1339e-13
1.13299e-13
1.14044e-13
1.21686e-13
1.62046e-13
2.55929e-12
4.32542e-11
8.76767e-10
1.73621e-08
3.41241e-07
7.46208e-06
0.000551037
3.19209e-05
1.75995e-06
9.55579e-08
5.21328e-09
2.87194e-10
1.42422e-11
3.11155e-13
8.18273e-13
7.92545e-13
7.91972e-13
7.9874e-13
1.45148e-13
1.23139e-11
2.64422e-10
4.76472e-09
9.13051e-08
1.76687e-06
3.42068e-05
0.000649692
0.000162748
6.94652e-06
3.73229e-07
2.0695e-08
1.10122e-09
5.77041e-11
2.7094e-12
8.30314e-14
1.85934e-14
9.71645e-15
9.54584e-15
2.02409e-14
1.79278e-13
3.5205e-12
5.69328e-11
1.04077e-09
1.9799e-08
3.82488e-07
7.49268e-06
0.000159369
1.19537e-07
1.83543e-06
8.73703e-06
2.19717e-05
4.10626e-05
6.51609e-05
9.2147e-05
0.000119488
0.000145142
0.000167714
0.000186451
0.000201188
0.000212208
0.000220064
0.000225413
0.000228897
0.000231069
0.000232366
0.000233106
0.000233511
0.000233722
0.000233827
0.000233876
0.000233899
0.000233909
0.000233915
0.000233918
0.000233921
0.000233923
0.000233926
0.000233928
0.000233929
0.00023393
0.000233931
0.000233932
0.000233932
0.000233932
0.000233933
0.000233933
0.000233933
0.000233933
0.000233934
0.000233935
0.000233936
0.000233936
0.000233935
0.00023393
0.000233923
0.00023391
0.000233893
0.000233872
0.000233849
0.000233826
0.000233805
0.000233787
0.000233773
0.000233763
0.000233756
0.000233751
0.000233748
0.000233747
0.000233746
0.000233746
0.000233747
0.000233747
0.000233747
0.000233747
0.000233747
0.000233748
0.000233748
0.000233747
0.000233748
0.000233749
0.000233748
0.000233747
0.000233748
0.000233748
0.000233749
0.000233749
0.000233747
0.000233748
0.000233749
0.000233748
0.000233748
0.000233749
0.00023375
0.000233751
0.000233755
0.000233762
0.000233776
0.000233799
0.00023384
0.000233911
0.000234029
0.000234226
0.000234555
0.000235103
0.000235981
0.000237197
0.000238286
1.85406e-06
4.88313e-05
0.000251534
0.000646107
0.00121334
0.00192614
0.00272505
0.00353544
0.00429563
0.00496403
0.00551864
0.00595481
0.00628098
0.00651357
0.00667202
0.0067753
0.00683974
0.00687826
0.00690031
0.00691237
0.00691868
0.00692183
0.00692333
0.00692402
0.00692434
0.0069245
0.0069246
0.00692469
0.00692476
0.00692484
0.0069249
0.00692495
0.00692498
0.00692501
0.00692502
0.00692503
0.00692503
0.00692506
0.00692507
0.00692506
0.00692508
0.00692511
0.00692513
0.00692516
0.00692515
0.00692513
0.006925
0.00692477
0.00692439
0.00692389
0.00692326
0.00692258
0.00692189
0.00692126
0.00692073
0.00692031
0.00691999
0.00691978
0.00691964
0.00691955
0.00691951
0.00691948
0.00691949
0.00691951
0.00691951
0.00691952
0.00691952
0.00691951
0.00691954
0.00691955
0.00691951
0.00691954
0.00691955
0.00691953
0.00691951
0.00691954
0.00691954
0.00691955
0.00691955
0.00691951
0.00691954
0.00691955
0.00691954
0.00691954
0.00691957
0.00691959
0.00691963
0.00691975
0.00691996
0.00692035
0.00692105
0.00692226
0.00692432
0.00692779
0.00693358
0.00694324
0.00695936
0.00698541
0.0070223
0.00705688
8.84307e-06
0.000253891
0.00150283
0.00416464
0.00805247
0.0128886
0.0182905
0.0237804
0.0289356
0.0334662
0.0372226
0.0401754
0.0423837
0.0439591
0.0450335
0.0457349
0.0461737
0.0464369
0.0465881
0.0466714
0.0467152
0.0467374
0.0467481
0.0467531
0.0467554
0.0467566
0.0467575
0.0467581
0.0467587
0.0467593
0.0467598
0.0467601
0.0467604
0.0467606
0.0467607
0.0467608
0.0467608
0.0467609
0.0467611
0.0467611
0.0467612
0.0467615
0.0467616
0.0467618
0.0467619
0.0467618
0.046761
0.0467594
0.0467569
0.0467533
0.0467489
0.0467441
0.0467392
0.0467347
0.0467309
0.0467279
0.0467256
0.0467241
0.0467231
0.0467224
0.0467221
0.0467219
0.0467219
0.046722
0.0467221
0.0467221
0.0467221
0.046722
0.0467222
0.0467222
0.046722
0.0467221
0.0467222
0.0467223
0.046722
0.0467222
0.0467222
0.0467222
0.0467223
0.0467221
0.0467222
0.0467222
0.0467222
0.0467222
0.0467223
0.0467225
0.0467229
0.0467236
0.046725
0.0467275
0.0467321
0.04674
0.0467535
0.0467759
0.0468131
0.0468751
0.0469798
0.0471554
0.0474267
0.0477351
2.2331e-05
0.000656074
0.00420571
0.012641
0.0257004
0.0421339
0.0604689
0.0791106
0.0966383
0.112052
0.124834
0.134883
0.142402
0.14777
0.151436
0.153834
0.155338
0.156244
0.156767
0.157057
0.157211
0.15729
0.157328
0.157347
0.157356
0.157361
0.157364
0.157367
0.15737
0.157372
0.157374
0.157376
0.157377
0.157378
0.157378
0.157379
0.157379
0.157379
0.15738
0.15738
0.15738
0.157381
0.157383
0.157384
0.157384
0.157384
0.157382
0.157377
0.157368
0.157355
0.157339
0.157321
0.157303
0.157286
0.157272
0.15726
0.157252
0.157246
0.157242
0.15724
0.157238
0.157237
0.157237
0.157237
0.157238
0.157238
0.157238
0.157238
0.157238
0.157238
0.157238
0.157238
0.157238
0.157238
0.157238
0.157238
0.157238
0.157238
0.157238
0.157238
0.157238
0.157238
0.157238
0.157238
0.157239
0.157239
0.15724
0.157243
0.157247
0.157256
0.15727
0.157295
0.157336
0.157405
0.157517
0.157701
0.158014
0.158573
0.159585
0.161195
4.19643e-05
0.00123934
0.00819956
0.0259671
0.0552871
0.0934219
0.136492
0.180508
0.222023
0.258605
0.28898
0.312883
0.330787
0.343588
0.352345
0.358087
0.3617
0.363883
0.365151
0.365858
0.366237
0.366433
0.366531
0.366579
0.366603
0.366617
0.366627
0.366636
0.366644
0.366651
0.366657
0.366663
0.366666
0.366669
0.366671
0.366673
0.366673
0.366674
0.366676
0.366677
0.366679
0.366682
0.366686
0.36669
0.366694
0.366695
0.366692
0.366682
0.366661
0.366628
0.366586
0.366537
0.366487
0.366442
0.366403
0.366371
0.366348
0.366332
0.366321
0.366314
0.36631
0.366308
0.366307
0.366307
0.366308
0.366308
0.366309
0.366308
0.366308
0.366309
0.366309
0.366308
0.366309
0.366309
0.366308
0.366308
0.366308
0.366309
0.366309
0.366309
0.366309
0.366309
0.366309
0.366309
0.36631
0.366311
0.366314
0.366319
0.366329
0.366347
0.366378
0.36643
0.366515
0.366652
0.366869
0.367214
0.367789
0.36887
0.371257
0.376862
6.70461e-05
0.00198078
0.0132246
0.0429772
0.0944216
0.163782
0.24378
0.326488
0.405041
0.47457
0.532471
0.578136
0.612404
0.636954
0.653785
0.664851
0.671836
0.676073
0.678546
0.679934
0.680684
0.681075
0.681274
0.681374
0.681427
0.681459
0.681483
0.681504
0.681525
0.681544
0.681561
0.681575
0.681585
0.681593
0.681598
0.681602
0.681605
0.681607
0.68161
0.681615
0.68162
0.681628
0.681639
0.681653
0.681666
0.681677
0.681679
0.681664
0.681626
0.681559
0.681467
0.681359
0.681247
0.681143
0.681055
0.680985
0.680931
0.680894
0.680869
0.680854
0.680844
0.680839
0.680837
0.680836
0.680836
0.680837
0.680838
0.680838
0.680838
0.680839
0.680839
0.680838
0.680839
0.680839
0.680839
0.680839
0.680839
0.680839
0.680839
0.680839
0.680839
0.68084
0.680839
0.68084
0.680841
0.680843
0.680848
0.680857
0.680874
0.680904
0.680955
0.681039
0.681172
0.681377
0.681686
0.682149
0.682865
0.684197
0.687932
0.701611
9.56363e-05
0.00282656
0.0189315
0.0622791
0.139451
0.246558
0.372796
0.505216
0.632206
0.745359
0.840032
0.914961
0.971349
1.01185
1.0397
1.05806
1.06969
1.07678
1.08093
1.08327
1.08455
1.08522
1.08557
1.08575
1.08585
1.08591
1.08596
1.08601
1.08606
1.0861
1.08614
1.08617
1.0862
1.08622
1.08623
1.08624
1.08624
1.08625
1.08626
1.08627
1.08628
1.0863
1.08633
1.08636
1.0864
1.08644
1.08647
1.08647
1.08641
1.0863
1.08612
1.08591
1.08569
1.08548
1.08531
1.08517
1.08506
1.08498
1.08493
1.0849
1.08488