/*--------------------------------*- C++ -*----------------------------------*\
| =========                 |                                                 |
| \\      /  F ield         | foam-extend: Open Source CFD                    |
|  \\    /   O peration     | Version:     4.0                                |
|   \\  /    A nd           | Web:         http://www.foam-extend.org         |
|    \\/     M anipulation  |                                                 |
\*---------------------------------------------------------------------------*/
FoamFile
{
    version     2.0;
    format      ascii;
    class       volScalarField;
    location    "0.0002";
    object      nut;
}
// * * * * * * * * * * * * * * * * * * * * * * * * * * * * * * * * * * * * * //

dimensions      [0 2 -1 0 0 0 0];

internalField   nonuniform List<scalar> 
28770
(
1.87944e-12
4.29258e-12
6.11024e-12
7.81935e-12
9.07767e-12
1.00712e-11
1.08241e-11
1.13732e-11
1.176e-11
1.20231e-11
1.21959e-11
1.23055e-11
1.23727e-11
1.24123e-11
1.24349e-11
1.24473e-11
1.24538e-11
1.24571e-11
1.24587e-11
1.24594e-11
1.24596e-11
1.24597e-11
1.24597e-11
1.24596e-11
1.24593e-11
1.24587e-11
1.24576e-11
1.24555e-11
1.24516e-11
1.24443e-11
1.24311e-11
1.24077e-11
1.23672e-11
1.22994e-11
1.2189e-11
1.20149e-11
1.17496e-11
1.13599e-11
1.08097e-11
1.00656e-11
9.10549e-12
7.92954e-12
6.57119e-12
5.10354e-12
3.63673e-12
2.30216e-12
1.22424e-12
4.87247e-13
1.08113e-13
7.98245e-15
3.93493e-10
7.55143e-10
1.05436e-09
1.34261e-09
1.55999e-09
1.72986e-09
1.85852e-09
1.95243e-09
2.01862e-09
2.06366e-09
2.09325e-09
2.11204e-09
2.12355e-09
2.13035e-09
2.13423e-09
2.13636e-09
2.13749e-09
2.13805e-09
2.13833e-09
2.13845e-09
2.1385e-09
2.13851e-09
2.1385e-09
2.13849e-09
2.13843e-09
2.13834e-09
2.13815e-09
2.13779e-09
2.13711e-09
2.13586e-09
2.13358e-09
2.12955e-09
2.12259e-09
2.11091e-09
2.0919e-09
2.06193e-09
2.01625e-09
1.94915e-09
1.85441e-09
1.72627e-09
1.56092e-09
1.3584e-09
1.1245e-09
8.71852e-10
6.19486e-10
3.90041e-10
2.04697e-10
7.7177e-11
1.19903e-11
1.21929e-13
1.0117e-08
1.61991e-08
2.1457e-08
2.67668e-08
3.10206e-08
3.43507e-08
3.68701e-08
3.87102e-08
4.00085e-08
4.08929e-08
4.14747e-08
4.18444e-08
4.20713e-08
4.22058e-08
4.22828e-08
4.23251e-08
4.23476e-08
4.2359e-08
4.23646e-08
4.23671e-08
4.23681e-08
4.23684e-08
4.23683e-08
4.2368e-08
4.23668e-08
4.2365e-08
4.23611e-08
4.2354e-08
4.23404e-08
4.23153e-08
4.22697e-08
4.2189e-08
4.20496e-08
4.18157e-08
4.14349e-08
4.08345e-08
3.99197e-08
3.85757e-08
3.6678e-08
3.41106e-08
3.07968e-08
2.67367e-08
2.20448e-08
1.69721e-08
1.18956e-08
7.26052e-09
3.49537e-09
1.00587e-09
8.29416e-11
5.55541e-13
9.42842e-08
1.28245e-07
1.59458e-07
1.92552e-07
2.20841e-07
2.4356e-07
2.60931e-07
2.73682e-07
2.82706e-07
2.88869e-07
2.92931e-07
2.95518e-07
2.9711e-07
2.98056e-07
2.98599e-07
2.989e-07
2.9906e-07
2.99142e-07
2.99182e-07
2.99201e-07
2.99208e-07
2.99211e-07
2.9921e-07
2.99207e-07
2.99199e-07
2.99186e-07
2.99158e-07
2.99106e-07
2.99008e-07
2.98826e-07
2.98495e-07
2.9791e-07
2.96899e-07
2.95205e-07
2.92449e-07
2.88106e-07
2.81492e-07
2.71781e-07
2.58072e-07
2.39526e-07
2.15575e-07
1.86187e-07
1.52126e-07
1.15116e-07
7.7834e-08
4.38131e-08
1.7586e-08
3.649e-09
2.22921e-10
1.38705e-12
4.85564e-07
5.88945e-07
6.92092e-07
8.06419e-07
9.097e-07
9.95643e-07
1.06281e-06
1.11275e-06
1.14839e-06
1.17287e-06
1.18908e-06
1.19944e-06
1.20584e-06
1.20966e-06
1.21186e-06
1.21308e-06
1.21374e-06
1.21407e-06
1.21424e-06
1.21432e-06
1.21435e-06
1.21436e-06
1.21436e-06
1.21434e-06
1.21431e-06
1.21425e-06
1.21414e-06
1.21392e-06
1.2135e-06
1.21273e-06
1.21132e-06
1.20884e-06
1.20455e-06
1.19736e-06
1.18567e-06
1.16726e-06
1.13925e-06
1.09813e-06
1.04008e-06
9.61492e-07
8.59836e-07
7.34748e-07
5.8922e-07
4.30764e-07
2.72786e-07
1.36116e-07
4.52806e-08
7.71825e-09
4.251e-10
2.58527e-12
1.69416e-06
1.91639e-06
2.15321e-06
2.42681e-06
2.68498e-06
2.90747e-06
3.08607e-06
3.22141e-06
3.31929e-06
3.38719e-06
3.4325e-06
3.46165e-06
3.47974e-06
3.49058e-06
3.49686e-06
3.50037e-06
3.50226e-06
3.50323e-06
3.50372e-06
3.50395e-06
3.50404e-06
3.50407e-06
3.50406e-06
3.50403e-06
3.50393e-06
3.50374e-06
3.50339e-06
3.50271e-06
3.50143e-06
3.49904e-06
3.49472e-06
3.48705e-06
3.47383e-06
3.45166e-06
3.4156e-06
3.35879e-06
3.27229e-06
3.14522e-06
2.96561e-06
2.72207e-06
2.4065e-06
2.01804e-06
1.56823e-06
1.08783e-06
6.33349e-07
2.80761e-07
8.21475e-08
1.27716e-08
6.75855e-10
4.06098e-12
4.47409e-06
4.89387e-06
5.316e-06
5.82441e-06
6.32049e-06
6.76095e-06
7.12394e-06
7.40489e-06
7.61143e-06
7.75662e-06
7.85455e-06
7.91809e-06
7.95782e-06
7.98179e-06
7.99574e-06
8.00357e-06
8.00781e-06
8.01002e-06
8.01112e-06
8.01163e-06
8.01186e-06
8.01192e-06
8.01189e-06
8.01179e-06
8.01156e-06
8.01109e-06
8.01021e-06
8.00852e-06
8.00532e-06
7.99938e-06
7.98858e-06
7.96941e-06
7.93632e-06
7.88078e-06
7.79033e-06
7.64765e-06
7.43004e-06
7.1099e-06
6.65686e-06
6.04259e-06
5.24926e-06
4.28273e-06
3.19077e-06
2.0811e-06
1.11722e-06
4.53256e-07
1.23311e-07
1.83827e-08
9.54843e-10
5.69299e-12
9.51486e-06
1.03166e-05
1.09962e-05
1.17901e-05
1.25765e-05
1.32889e-05
1.3889e-05
1.43629e-05
1.47173e-05
1.497e-05
1.51426e-05
1.52558e-05
1.53272e-05
1.53706e-05
1.5396e-05
1.54104e-05
1.54182e-05
1.54223e-05
1.54243e-05
1.54253e-05
1.54257e-05
1.54258e-05
1.54257e-05
1.54255e-05
1.5425e-05
1.5424e-05
1.54221e-05
1.54184e-05
1.54116e-05
1.53988e-05
1.53756e-05
1.53344e-05
1.52631e-05
1.51432e-05
1.49476e-05
1.46385e-05
1.41664e-05
1.34717e-05
1.24904e-05
1.11678e-05
9.48267e-06
7.48259e-06
5.32261e-06
3.27378e-06
1.64776e-06
6.31109e-07
1.65094e-07
2.4116e-08
1.24027e-09
7.3565e-12
1.69692e-05
1.85956e-05
1.96884e-05
2.07904e-05
2.18728e-05
2.28592e-05
2.37016e-05
2.43779e-05
2.48912e-05
2.52624e-05
2.55192e-05
2.56893e-05
2.57977e-05
2.58641e-05
2.59033e-05
2.59255e-05
2.59376e-05
2.5944e-05
2.59471e-05
2.59486e-05
2.59492e-05
2.59493e-05
2.59491e-05
2.59487e-05
2.59477e-05
2.59458e-05
2.59421e-05
2.59352e-05
2.59222e-05
2.58979e-05
2.58536e-05
2.57749e-05
2.56385e-05
2.54088e-05
2.50337e-05
2.44405e-05
2.35351e-05
2.22065e-05
2.03432e-05
1.78666e-05
1.47871e-05
1.12705e-05
7.67737e-06
4.50048e-06
2.16416e-06
8.00188e-07
2.0489e-07
2.96128e-08
1.5143e-09
8.95216e-12
2.61524e-05
2.9302e-05
3.10874e-05
3.25851e-05
3.39456e-05
3.51658e-05
3.62078e-05
3.70519e-05
3.76995e-05
3.8173e-05
3.85041e-05
3.87258e-05
3.88683e-05
3.89562e-05
3.90083e-05
3.9038e-05
3.90542e-05
3.90627e-05
3.90669e-05
3.90688e-05
3.90695e-05
3.90696e-05
3.90692e-05
3.90683e-05
3.90665e-05
3.90632e-05
3.90569e-05
3.90449e-05
3.90225e-05
3.89808e-05
3.89048e-05
3.87696e-05
3.85354e-05
3.81407e-05
3.7496e-05
3.64777e-05
3.49286e-05
3.26711e-05
2.95437e-05
2.54706e-05
2.05588e-05
1.51842e-05
9.98008e-06
5.64624e-06
2.63437e-06
9.53635e-07
2.41264e-07
3.46649e-08
1.7661e-09
1.04129e-11
3.58074e-05
4.11873e-05
4.39603e-05
4.60864e-05
4.77272e-05
4.91377e-05
5.03191e-05
5.12737e-05
5.20088e-05
5.25496e-05
5.29306e-05
5.31876e-05
5.33538e-05
5.3457e-05
5.35183e-05
5.35533e-05
5.35724e-05
5.35823e-05
5.35871e-05
5.35892e-05
5.35899e-05
5.35897e-05
5.35888e-05
5.35872e-05
5.35843e-05
5.35789e-05
5.35689e-05
5.35502e-05
5.35151e-05
5.34502e-05
5.33322e-05
5.31224e-05
5.2759e-05
5.21474e-05
5.115e-05
4.95797e-05
4.72047e-05
4.37771e-05
3.91013e-05
3.31477e-05
2.61864e-05
1.88577e-05
1.20673e-05
6.66418e-06
3.05106e-06
1.09091e-06
2.74188e-07
3.92772e-08
1.99601e-09
1.17132e-11
4.47123e-05
5.27163e-05
5.67042e-05
5.96146e-05
6.16449e-05
6.32324e-05
6.45131e-05
6.553e-05
6.63088e-05
6.68812e-05
6.72852e-05
6.75587e-05
6.77362e-05
6.78466e-05
6.79123e-05
6.79496e-05
6.79699e-05
6.79802e-05
6.7985e-05
6.79869e-05
6.79873e-05
6.79866e-05
6.79851e-05
6.79825e-05
6.79779e-05
6.79698e-05
6.79551e-05
6.7928e-05
6.78779e-05
6.77857e-05
6.76188e-05
6.73228e-05
6.68111e-05
6.59515e-05
6.45539e-05
6.2364e-05
5.90759e-05
5.43825e-05
4.80799e-05
4.02233e-05
3.12749e-05
2.21272e-05
1.39031e-05
7.56408e-06
3.42629e-06
1.21739e-06
3.05169e-07
4.37176e-08
2.22551e-09
1.30401e-11
5.2109e-05
6.26928e-05
6.79423e-05
7.16363e-05
7.42008e-05
7.59865e-05
7.73574e-05
7.8414e-05
7.92118e-05
7.97935e-05
8.02027e-05
8.04792e-05
8.06585e-05
8.07698e-05
8.08358e-05
8.08731e-05
8.0893e-05
8.09029e-05
8.09072e-05
8.09086e-05
8.09084e-05
8.09069e-05
8.09044e-05
8.09002e-05
8.08935e-05
8.0882e-05
8.08618e-05
8.08255e-05
8.07592e-05
8.06386e-05
8.04215e-05
8.00381e-05
7.93772e-05
7.82706e-05
7.64784e-05
7.36854e-05
6.95244e-05
6.36491e-05
5.58718e-05
4.63476e-05
3.57124e-05
2.50362e-05
1.55626e-05
8.4021e-06
3.78961e-06
1.34425e-06
3.36896e-07
4.83114e-08
2.47422e-09
1.47495e-11
5.77759e-05
7.05721e-05
7.69615e-05
8.13776e-05
8.44653e-05
8.64837e-05
8.79458e-05
8.90386e-05
8.98494e-05
9.04334e-05
9.08409e-05
9.11149e-05
9.12916e-05
9.14008e-05
9.14652e-05
9.15011e-05
9.15199e-05
9.15289e-05
9.15325e-05
9.15331e-05
9.15319e-05
9.15294e-05
9.15254e-05
9.15192e-05
9.15095e-05
9.14939e-05
9.14676e-05
9.14215e-05
9.13393e-05
9.11919e-05
9.09288e-05
9.04667e-05
8.96735e-05
8.83501e-05
8.62158e-05
8.29085e-05
7.80194e-05
7.11867e-05
6.22571e-05
5.14782e-05
3.96097e-05
2.77908e-05
1.72282e-05
9.3006e-06
4.20791e-06
1.49955e-06
3.76816e-07
5.37787e-08
2.70638e-09
1.57225e-11
6.1851e-05
7.63576e-05
8.3666e-05
8.86741e-05
9.21783e-05
9.44546e-05
9.60142e-05
9.7148e-05
9.79748e-05
9.85627e-05
9.89692e-05
9.92405e-05
9.94145e-05
9.95212e-05
9.95836e-05
9.9618e-05
9.96356e-05
9.96436e-05
9.96462e-05
9.96458e-05
9.96435e-05
9.96395e-05
9.96334e-05
9.96245e-05
9.96111e-05
9.95904e-05
9.95571e-05
9.9501e-05
9.94038e-05
9.92326e-05
9.89307e-05
9.84045e-05
9.75054e-05
9.60113e-05
9.36116e-05
8.99127e-05
8.44852e-05
7.69771e-05
6.72892e-05
5.57515e-05
4.31671e-05
3.05566e-05
1.90521e-05
1.04073e-05
4.79741e-06
1.75257e-06
4.5358e-07
6.65798e-08
3.39054e-09
1.83075e-11
6.4641e-05
8.03729e-05
8.83628e-05
9.38221e-05
9.76368e-05
0.000100133
0.000101785
0.000102961
0.000103807
0.000104402
0.00010481
0.000105081
0.000105254
0.000105359
0.00010542
0.000105453
0.00010547
0.000105477
0.000105479
0.000105477
0.000105473
0.000105467
0.000105459
0.000105446
0.000105428
0.000105401
0.000105359
0.000105293
0.000105181
0.000104989
0.000104656
0.000104081
0.000103104
0.000101486
9.88958e-05
9.49197e-05
8.9122e-05
8.1183e-05
7.10989e-05
5.93513e-05
5.02261e-05
3.54422e-05
2.27535e-05
1.29308e-05
6.35479e-06
2.54328e-06
7.56811e-07
1.41364e-07
1.10808e-08
8.57432e-11
6.64799e-05
8.30423e-05
9.15077e-05
9.72927e-05
0.000101333
0.000103997
0.000105723
0.000106934
0.000107797
0.000108402
0.000108814
0.000109086
0.000109259
0.000109364
0.000109425
0.000109457
0.000109473
0.00010948
0.00010948
0.000109477
0.000109472
0.000109463
0.000109451
0.000109434
0.000109409
0.000109374
0.000109323
0.000109245
0.000109119
0.000108909
0.000108551
0.000107939
0.000106907
0.000105204
0.000102482
9.83105e-05
9.22404e-05
8.39727e-05
7.35857e-05
6.15335e-05
5.07263e-05
3.63141e-05
2.30265e-05
1.31409e-05
6.52784e-06
2.64067e-06
7.93777e-07
1.48922e-07
1.131e-08
7.75545e-11
6.76588e-05
8.47635e-05
9.35468e-05
9.95573e-05
0.000103755
0.000106548
0.000108331
0.000109564
0.00011044
0.000111053
0.00011147
0.000111745
0.00011192
0.000112026
0.000112086
0.000112119
0.000112134
0.00011214
0.000112139
0.000112135
0.000112127
0.000112115
0.000112098
0.000112075
0.000112043
0.000111998
0.000111936
0.000111844
0.000111702
0.000111474
0.000111095
0.000110457
0.000109387
0.000107628
0.00010482
0.00010051
9.42156e-05
8.55911e-05
7.47014e-05
6.19704e-05
5.02455e-05
3.54151e-05
2.22276e-05
1.26778e-05
6.29405e-06
2.51316e-06
7.48114e-07
1.40136e-07
1.05673e-08
7.05553e-11
6.84024e-05
8.58542e-05
9.48456e-05
0.000101009
0.000105315
0.000108207
0.000110033
0.000111279
0.000112164
0.000112783
0.000113205
0.000113483
0.00011366
0.000113767
0.000113828
0.000113861
0.000113876
0.000113881
0.000113879
0.000113873
0.000113863
0.000113847
0.000113825
0.000113794
0.000113752
0.000113696
0.000113619
0.000113511
0.000113353
0.000113107
0.000112708
0.000112049
0.000110954
0.000109161
0.000106305
0.000101921
9.55071e-05
8.66716e-05
7.54482e-05
6.23632e-05
5.05256e-05
3.50245e-05
2.19197e-05
1.24932e-05
6.16291e-06
2.00419e-06
5.82725e-07
1.04373e-07
7.12912e-09
2.83307e-11
6.88698e-05
8.6543e-05
9.56704e-05
0.000101939
0.000106321
0.000109289
0.000111147
0.000112401
0.00011329
0.000113915
0.000114342
0.000114624
0.000114803
0.000114911
0.000114973
0.000115006
0.000115021
0.000115026
0.000115023
0.000115015
0.000115001
0.000114981
0.000114952
0.000114912
0.000114859
0.000114789
0.000114696
0.00011457
0.000114392
0.000114127
0.00011371
0.000113033
0.000111921
0.00011011
0.00010723
0.000102816
9.63582e-05
8.7452e-05
7.61163e-05
6.29906e-05
5.13224e-05
3.55566e-05
2.23557e-05
1.27932e-05
6.29598e-06
2.09126e-06
6.25309e-07
1.11117e-07
8.01913e-09
3.42336e-11
6.91657e-05
8.69816e-05
9.61991e-05
0.000102542
0.00010698
0.000110005
0.000111888
0.000113149
0.000114042
0.000114672
0.000115103
0.000115388
0.00011557
0.00011568
0.000115744
0.000115777
0.000115792
0.000115796
0.000115792
0.000115782
0.000115765
0.000115739
0.000115703
0.000115654
0.000115588
0.000115501
0.000115389
0.000115243
0.000115044
0.000114759
0.000114324
0.000113633
0.00011251
0.000110692
0.000107809
0.000103396
9.69492e-05
8.80643e-05
7.6755e-05
6.3708e-05
5.20781e-05
3.6359e-05
2.30079e-05
1.32308e-05
6.52691e-06
2.15985e-06
6.38285e-07
1.14422e-07
8.44378e-09
3.56874e-11
6.93549e-05
8.72632e-05
9.65407e-05
0.000102936
0.000107419
0.000110488
0.000112393
0.000113659
0.000114557
0.000115191
0.000115627
0.000115916
0.000116101
0.000116213
0.000116278
0.000116312
0.000116327
0.00011633
0.000116325
0.000116312
0.000116292
0.000116261
0.000116217
0.000116157
0.000116077
0.000115974
0.000115842
0.000115674
0.000115453
0.000115147
0.000114695
0.000113991
0.000112861
0.000111044
0.000108172
0.000103781
9.73722e-05
8.85439e-05
7.72958e-05
6.42985e-05
5.26192e-05
3.69638e-05
2.35032e-05
1.35862e-05
6.73284e-06
2.23299e-06
6.71684e-07
1.23622e-07
9.25696e-09
3.75206e-11
6.94752e-05
8.74415e-05
9.67565e-05
0.000103188
0.000107705
0.000110809
0.000112734
0.000114007
0.000114909
0.000115548
0.000115989
0.000116282
0.00011647
0.000116585
0.000116651
0.000116686
0.000116701
0.000116704
0.000116697
0.000116683
0.000116659
0.000116623
0.000116572
0.000116501
0.000116408
0.000116287
0.000116135
0.000115945
0.000115702
0.000115377
0.000114909
0.000114193
0.000113059
0.000111246
0.00010839
0.000104029
9.76679e-05
8.89043e-05
7.77254e-05
6.47776e-05
5.3079e-05
3.74188e-05
2.39005e-05
1.39012e-05
6.94187e-06
2.33965e-06
7.13699e-07
1.36537e-07
9.04961e-09
9.99959e-11
6.95486e-05
8.75489e-05
9.68848e-05
0.000103337
0.000107877
0.000111005
0.000112951
0.00011423
0.000115135
0.000115779
0.000116225
0.000116522
0.000116714
0.000116831
0.000116898
0.000116934
0.00011695
0.000116952
0.000116945
0.000116928
0.000116902
0.000116862
0.000116804
0.000116724
0.000116618
0.000116481
0.000116311
0.000116101
0.00011584
0.000115498
0.000115017
0.000114292
0.000113155
0.000111347
0.000108507
0.000104175
9.78592e-05
8.91571e-05
7.80473e-05
6.51648e-05
5.3509e-05
3.78721e-05
2.43128e-05
1.42321e-05
7.1776e-06
2.46865e-06
7.75611e-07
1.54787e-07
1.08977e-08
1.24721e-10
6.95914e-05
8.76173e-05
9.69751e-05
0.000103442
0.000107999
0.000111142
0.000113109
0.000114387
0.000115292
0.000115939
0.000116388
0.000116689
0.000116882
0.000117001
0.000117069
0.000117106
0.000117121
0.000117124
0.000117116
0.000117098
0.00011707
0.000117026
0.000116964
0.000116878
0.000116762
0.000116614
0.000116428
0.000116204
0.00011593
0.000115576
0.000115086
0.000114355
0.000113216
0.000111412
0.000108584
0.000104276
9.79953e-05
8.93439e-05
7.82961e-05
6.54769e-05
5.38395e-05
3.83057e-05
2.47122e-05
1.45438e-05
7.39061e-06
2.57027e-06
8.55126e-07
1.88993e-07
2.6831e-08
6.57349e-10
6.95661e-05
8.75992e-05
9.69715e-05
0.000103452
0.000108019
0.000111171
0.000113153
0.00011443
0.000115335
0.000115984
0.000116435
0.000116738
0.000116932
0.000117051
0.00011712
0.000117157
0.000117173
0.000117175
0.000117167
0.000117149
0.000117119
0.000117075
0.000117011
0.000116922
0.000116803
0.000116648
0.000116456
0.000116226
0.000115947
0.000115589
0.000115094
0.000114361
0.000113222
0.000111419
0.000108594
0.000104293
9.80262e-05
8.93957e-05
7.83777e-05
6.55868e-05
5.39101e-05
3.8545e-05
2.49336e-05
1.4713e-05
7.50573e-06
2.64479e-06
9.0309e-07
2.19869e-07
4.08363e-08
3.4489e-09
6.95535e-05
8.75806e-05
9.69534e-05
0.000103436
0.000108004
0.000111152
0.000113117
0.000114396
0.000115304
0.000115951
0.0001164
0.0001167
0.000116893
0.000117012
0.00011708
0.000117116
0.000117132
0.000117134
0.000117126
0.000117108
0.000117079
0.000117036
0.000116973
0.000116887
0.000116771
0.000116621
0.000116436
0.000116212
0.000115938
0.000115584
0.000115093
0.000114362
0.000113223
0.000111419
0.00010859
0.000104281
9.79999e-05
8.93499e-05
7.8309e-05
6.54858e-05
5.36907e-05
3.84613e-05
2.48513e-05
1.46415e-05
7.44536e-06
2.59162e-06
8.65946e-07
1.97832e-07
2.86359e-08
8.98856e-10
6.95077e-05
8.75106e-05
9.6863e-05
0.000103332
0.000107887
0.000111019
0.000112963
0.000114243
0.000115151
0.000115797
0.000116242
0.00011654
0.000116731
0.000116848
0.000116915
0.000116951
0.000116966
0.000116969
0.000116961
0.000116945
0.000116918
0.000116877
0.000116819
0.000116739
0.000116632
0.000116494
0.000116323
0.000116113
0.000115852
0.00011551
0.000115029
0.000114304
0.000113166
0.000111358
0.000108517
0.000104185
9.78668e-05
8.9163e-05
7.80558e-05
6.5161e-05
5.3271e-05
3.80872e-05
2.45082e-05
1.43633e-05
7.23599e-06
2.45799e-06
7.84843e-07
1.59459e-07
1.73442e-08
1.31563e-10
6.94671e-05
8.74342e-05
9.67543e-05
0.000103194
0.000107721
0.000110824
0.000112745
0.000114019
0.000114925
0.000115566
0.000116007
0.000116301
0.00011649
0.000116605
0.000116671
0.000116706
0.000116721
0.000116724
0.000116717
0.000116703
0.000116678
0.000116642
0.00011659
0.000116519
0.000116424
0.000116302
0.000116149
0.000115959
0.000115717
0.000115391
0.000114923
0.000114208
0.000113074
0.000111261
0.000108404
0.000104042
9.76766e-05
8.89061e-05
7.7718e-05
6.47522e-05
5.28093e-05
3.76169e-05
2.40783e-05
1.40165e-05
6.98482e-06
2.32203e-06
7.18615e-07
1.37782e-07
1.40673e-08
1.01436e-10
6.93384e-05
8.72469e-05
9.65262e-05
0.00010293
0.000107422
0.00011049
0.000112391
0.000113659
0.000114562
0.000115199
0.000115637
0.000115928
0.000116113
0.000116227
0.000116292
0.000116326
0.000116342
0.000116345
0.00011634
0.000116327
0.000116306
0.000116275
0.000116231
0.00011617
0.000116089
0.000115984
0.000115852
0.000115683
0.000115462
0.000115156
0.000114704
0.000113999
0.000112869
0.000111051
0.000108177
0.000103783
9.73692e-05
8.85351e-05
7.72755e-05
6.42556e-05
5.23279e-05
3.71662e-05
2.36838e-05
1.36972e-05
6.76222e-06
2.21198e-06
6.71776e-07
1.24203e-07
9.53979e-09
3.98752e-11
6.91396e-05
8.69508e-05
9.61681e-05
0.000102522
0.00010697
0.000109991
0.000111874
0.000113137
0.000114037
0.000114671
0.000115106
0.000115394
0.000115577
0.000115689
0.000115754
0.000115788
0.000115803
0.000115808
0.000115804
0.000115793
0.000115776
0.00011575
0.000115714
0.000115663
0.000115596
0.000115509
0.000115397
0.000115249
0.00011505
0.000114765
0.00011433
0.000113638
0.000112513
0.000110692
0.000107805
0.000103384
9.69314e-05
8.80492e-05
7.67415e-05
6.36989e-05
5.17307e-05
3.66923e-05
2.3279e-05
1.33914e-05
6.57046e-06
2.13117e-06
6.35201e-07
1.13165e-07
8.25645e-09
3.61155e-11
6.88327e-05
8.64955e-05
9.56208e-05
0.000101905
0.000106295
0.000109258
0.000111118
0.000112377
0.000113275
0.000113906
0.000114338
0.000114624
0.000114806
0.000114917
0.000114981
0.000115015
0.000115031
0.000115036
0.000115034
0.000115026
0.000115012
0.000114991
0.000114962
0.000114922
0.000114868
0.000114797
0.000114703
0.000114576
0.000114398
0.000114133
0.000113715
0.000113037
0.000111922
0.000110104
0.000107212
0.000102782
9.63139e-05
8.74141e-05
7.60814e-05
6.29794e-05
5.08658e-05
3.59812e-05
2.27089e-05
1.30022e-05
6.36437e-06
2.07594e-06
6.22767e-07
1.1067e-07
7.8143e-09
3.38848e-11
6.83548e-05
8.57899e-05
9.47773e-05
0.00010096
0.000105273
0.000108159
0.000109991
0.000111245
0.00011214
0.000112767
0.000113196
0.00011348
0.000113661
0.000113772
0.000113835
0.00011387
0.000113886
0.000113892
0.000113891
0.000113885
0.000113875
0.000113859
0.000113836
0.000113805
0.000113763
0.000113706
0.000113628
0.00011352
0.000113361
0.000113115
0.000112716
0.000112054
0.000110952
0.000109147
0.00010627
0.00010186
9.54239e-05
8.65774e-05
7.532e-05
6.22788e-05
5.0181e-05
3.51741e-05
2.20287e-05
1.25535e-05
6.15194e-06
1.9851e-06
5.79967e-07
1.04084e-07
7.13556e-09
2.79027e-11
6.76061e-05
8.4688e-05
9.34648e-05
9.94956e-05
0.000103699
0.000106486
0.000108278
0.000109522
0.00011041
0.000111032
0.000111458
0.000111741
0.000111921
0.000112031
0.000112095
0.00011213
0.000112148
0.000112154
0.000112155
0.000112151
0.000112143
0.000112131
0.000112114
0.00011209
0.000112058
0.000112013
0.00011195
0.000111858
0.000111716
0.000111488
0.000111108
0.000110466
0.000109388
0.000107612
0.000104776
0.00010043
9.4095e-05
8.54083e-05
7.43895e-05
6.16608e-05
5.0171e-05
3.48408e-05
2.17634e-05
1.23731e-05
6.10744e-06
2.39216e-06
7.03907e-07
1.32518e-07
1.0034e-08
6.75317e-11
6.64342e-05
8.29694e-05
9.14253e-05
9.72291e-05
0.000101272
0.00010393
0.000105665
0.000106889
0.000107764
0.000108379
0.000108802
0.000109083
0.000109263
0.000109374
0.000109438
0.000109474
0.000109492
0.0001095
0.000109502
0.0001095
0.000109494
0.000109486
0.000109473
0.000109456
0.000109431
0.000109396
0.000109345
0.000109267
0.000109141
0.000108931
0.000108572
0.000107957
0.000106915
0.000105192
0.000102436
9.82119e-05
9.20679e-05
8.36814e-05
7.31511e-05
6.1262e-05
5.08349e-05
3.57546e-05
2.24408e-05
1.27863e-05
6.3526e-06
2.56204e-06
7.66563e-07
1.42365e-07
1.06529e-08
7.12723e-11
6.46216e-05
8.03266e-05
8.83038e-05
9.37749e-05
9.75844e-05
0.000100074
0.000101731
0.00010292
0.000103776
0.000104383
0.000104802
0.000105082
0.000105263
0.000105375
0.000105441
0.000105478
0.000105497
0.000105506
0.000105509
0.000105508
0.000105505
0.000105499
0.00010549
0.000105478
0.00010546
0.000105433
0.000105392
0.000105325
0.000105215
0.000105024
0.00010469
0.000104112
0.000103125
0.000101487
9.88609e-05
9.48302e-05
8.8965e-05
8.09663e-05
7.09666e-05
5.98057e-05
4.92036e-05
3.6384e-05
2.32153e-05
1.32106e-05
6.54089e-06
2.63771e-06
7.89422e-07
1.4749e-07
1.12286e-08
7.76749e-11
6.18823e-05
7.63699e-05
8.3661e-05
8.86669e-05
9.21518e-05
9.4418e-05
9.59771e-05
9.71205e-05
9.7955e-05
9.85525e-05
9.89688e-05
9.92494e-05
9.94317e-05
9.95455e-05
9.96134e-05
9.96521e-05
9.96728e-05
9.96829e-05
9.9687e-05
9.96876e-05
9.96858e-05
9.96821e-05
9.96762e-05
9.96674e-05
9.96542e-05
9.96339e-05
9.96012e-05
9.95462e-05
9.94505e-05
9.92809e-05
9.898e-05
9.8452e-05
9.75454e-05
9.60339e-05
9.36026e-05
8.98582e-05
8.43857e-05
7.6882e-05
6.74564e-05
5.68996e-05
4.44957e-05
3.11019e-05
1.94405e-05
1.0622e-05
4.90644e-06
1.794e-06
4.63448e-07
6.80318e-08
3.46283e-09
1.87835e-11
5.78829e-05
7.0676e-05
7.704e-05
8.14333e-05
8.44844e-05
8.64853e-05
8.79398e-05
8.90343e-05
8.98475e-05
9.04374e-05
9.08524e-05
9.11344e-05
9.13189e-05
9.1435e-05
9.1505e-05
9.15454e-05
9.15675e-05
9.15788e-05
9.1584e-05
9.15856e-05
9.15851e-05
9.15829e-05
9.15792e-05
9.15733e-05
9.1564e-05
9.15489e-05
9.15235e-05
9.1479e-05
9.1399e-05
9.12541e-05
9.09932e-05
9.05313e-05
8.97337e-05
8.83977e-05
8.62393e-05
8.28956e-05
7.79596e-05
7.1064e-05
6.21329e-05
5.18679e-05
4.04705e-05
2.85024e-05
1.78133e-05
9.67758e-06
4.40333e-06
1.57564e-06
3.97433e-07
5.71073e-08
2.89681e-09
1.6926e-11
5.23092e-05
6.29111e-05
6.81226e-05
7.17692e-05
7.42815e-05
7.60369e-05
7.73915e-05
7.8439e-05
7.92321e-05
7.98145e-05
8.02275e-05
8.05098e-05
8.06955e-05
8.08129e-05
8.08842e-05
8.09257e-05
8.09489e-05
8.09611e-05
8.0967e-05
8.09695e-05
8.09699e-05
8.09689e-05
8.09667e-05
8.09629e-05
8.09565e-05
8.09458e-05
8.09268e-05
8.08923e-05
8.08287e-05
8.07113e-05
8.04976e-05
8.01162e-05
7.9454e-05
7.834e-05
7.65332e-05
7.37229e-05
6.95538e-05
6.36672e-05
5.58364e-05
4.64354e-05
3.59831e-05
2.53443e-05
1.58719e-05
8.61771e-06
3.90786e-06
1.39219e-06
3.4971e-07
5.0102e-08
2.54341e-09
1.49101e-11
4.50004e-05
5.30407e-05
5.69767e-05
5.98175e-05
6.17853e-05
6.33299e-05
6.45855e-05
6.55832e-05
6.635e-05
6.69174e-05
6.73213e-05
6.75977e-05
6.77796e-05
6.78948e-05
6.79649e-05
6.8006e-05
6.80292e-05
6.80416e-05
6.8048e-05
6.80509e-05
6.80519e-05
6.80516e-05
6.80504e-05
6.80481e-05
6.80441e-05
6.80368e-05
6.80234e-05
6.79983e-05
6.79509e-05
6.78623e-05
6.76994e-05
6.74066e-05
6.68955e-05
6.60313e-05
6.46215e-05
6.24141e-05
5.91171e-05
5.44301e-05
4.81102e-05
4.02794e-05
3.1389e-05
2.22704e-05
1.40487e-05
7.66488e-06
3.48217e-06
1.2403e-06
3.11264e-07
4.45496e-08
2.26063e-09
1.3255e-11
3.61509e-05
4.15745e-05
4.42874e-05
4.6331e-05
4.79062e-05
4.9269e-05
5.04177e-05
5.13461e-05
5.2064e-05
5.25954e-05
5.29726e-05
5.32297e-05
5.33983e-05
5.35047e-05
5.35694e-05
5.36074e-05
5.36289e-05
5.36406e-05
5.36466e-05
5.36496e-05
5.36508e-05
5.3651e-05
5.36505e-05
5.36492e-05
5.36467e-05
5.36421e-05
5.36333e-05
5.36164e-05
5.3584e-05
5.35225e-05
5.34085e-05
5.32024e-05
5.2841e-05
5.22274e-05
5.12211e-05
4.96343e-05
4.72422e-05
4.38069e-05
3.91175e-05
3.31619e-05
2.6214e-05
1.88984e-05
1.2112e-05
6.6961e-06
3.06949e-06
1.09851e-06
2.76128e-07
3.95129e-08
2.00366e-09
1.17446e-11
2.64875e-05
2.96731e-05
3.14072e-05
3.28268e-05
3.41294e-05
3.53062e-05
3.63133e-05
3.71294e-05
3.77581e-05
3.82201e-05
3.85453e-05
3.87652e-05
3.89082e-05
3.89979e-05
3.90522e-05
3.90841e-05
3.91021e-05
3.91119e-05
3.9117e-05
3.91196e-05
3.91208e-05
3.91212e-05
3.9121e-05
3.91203e-05
3.9119e-05
3.91163e-05
3.9111e-05
3.91006e-05
3.90803e-05
3.90415e-05
3.8969e-05
3.88372e-05
3.86051e-05
3.82099e-05
3.75594e-05
3.65279e-05
3.49602e-05
3.26848e-05
2.95375e-05
2.5449e-05
2.05322e-05
1.51616e-05
9.96564e-06
5.63801e-06
2.63075e-06
9.51989e-07
2.40531e-07
3.44593e-08
1.7465e-09
1.02303e-11
1.72268e-05
1.88744e-05
1.99437e-05
2.09886e-05
2.20295e-05
2.29821e-05
2.37947e-05
2.44469e-05
2.49432e-05
2.53034e-05
2.55539e-05
2.57213e-05
2.58292e-05
2.58963e-05
2.59367e-05
2.59602e-05
2.59735e-05
2.59808e-05
2.59846e-05
2.59866e-05
2.59875e-05
2.59878e-05
2.59878e-05
2.59875e-05
2.59869e-05
2.59854e-05
2.59825e-05
2.59767e-05
2.59653e-05
2.59431e-05
2.59013e-05
2.58251e-05
2.56905e-05
2.54606e-05
2.50817e-05
2.44789e-05
2.3558e-05
2.22104e-05
2.03256e-05
1.78293e-05
1.47375e-05
1.12196e-05
7.63564e-06
4.47277e-06
2.14947e-06
7.93784e-07
2.02694e-07
2.91361e-08
1.47663e-09
8.64326e-12
9.66049e-06
1.04733e-05
1.11625e-05
1.19268e-05
1.26892e-05
1.33792e-05
1.39581e-05
1.44148e-05
1.47564e-05
1.50006e-05
1.5168e-05
1.52785e-05
1.5349e-05
1.53925e-05
1.54185e-05
1.54336e-05
1.54421e-05
1.54467e-05
1.54491e-05
1.54504e-05
1.5451e-05
1.54513e-05
1.54513e-05
1.54512e-05
1.54509e-05
1.54502e-05
1.54487e-05
1.54458e-05
1.544e-05
1.54287e-05
1.54071e-05
1.53674e-05
1.52972e-05
1.5177e-05
1.49788e-05
1.46633e-05
1.41803e-05
1.34708e-05
1.2472e-05
1.11323e-05
9.43469e-06
7.4311e-06
5.27791e-06
3.24282e-06
1.63087e-06
6.23698e-07
1.62501e-07
2.35261e-08
1.193e-09
6.98084e-12
4.52502e-06
4.95346e-06
5.40347e-06
5.90308e-06
6.38845e-06
6.81649e-06
7.16711e-06
7.43769e-06
7.63633e-06
7.77597e-06
7.8704e-06
7.93204e-06
7.97097e-06
7.9948e-06
8.00896e-06
8.01713e-06
8.02171e-06
8.02421e-06
8.02553e-06
8.0262e-06
8.02653e-06
8.02669e-06
8.02672e-06
8.02668e-06
8.02655e-06
8.02626e-06
8.02564e-06
8.02435e-06
8.02173e-06
8.01656e-06
8.00666e-06
7.98839e-06
7.95585e-06
7.90007e-06
7.80797e-06
7.66142e-06
7.43713e-06
7.10761e-06
6.64326e-06
6.01753e-06
5.21535e-06
4.24552e-06
3.15748e-06
2.05751e-06
1.10438e-06
4.47687e-07
1.21205e-07
1.78171e-08
9.04553e-10
5.29173e-12
1.69837e-06
1.92803e-06
2.19073e-06
2.46414e-06
2.71854e-06
2.93541e-06
3.10815e-06
3.23842e-06
3.3323e-06
3.39731e-06
3.44075e-06
3.46883e-06
3.48643e-06
3.49713e-06
3.50345e-06
3.50709e-06
3.50912e-06
3.51023e-06
3.51081e-06
3.51111e-06
3.51126e-06
3.51133e-06
3.51135e-06
3.51134e-06
3.51129e-06
3.51119e-06
3.51095e-06
3.51046e-06
3.50945e-06
3.50743e-06
3.50353e-06
3.49628e-06
3.4833e-06
3.46097e-06
3.42403e-06
3.36524e-06
3.27534e-06
3.14342e-06
2.95789e-06
2.70826e-06
2.38786e-06
1.99741e-06
1.54954e-06
1.07462e-06
6.26609e-07
2.78231e-07
8.10743e-08
1.23504e-08
6.29234e-10
3.66771e-12
4.80502e-07
5.8832e-07
7.05484e-07
8.20508e-07
9.22642e-07
1.00658e-06
1.07159e-06
1.11961e-06
1.15368e-06
1.17701e-06
1.19245e-06
1.20236e-06
1.20854e-06
1.21228e-06
1.21448e-06
1.21574e-06
1.21644e-06
1.21683e-06
1.21703e-06
1.21713e-06
1.21718e-06
1.21721e-06
1.21721e-06
1.21721e-06
1.2172e-06
1.21717e-06
1.2171e-06
1.21695e-06
1.21663e-06
1.21599e-06
1.21475e-06
1.21242e-06
1.20822e-06
1.20096e-06
1.18891e-06
1.1697e-06
1.14032e-06
1.09723e-06
1.03676e-06
9.55646e-07
8.51937e-07
7.25932e-07
5.81135e-07
4.2507e-07
2.70219e-07
1.35671e-07
4.51487e-08
7.51154e-09
3.90644e-10
2.25416e-12
9.23056e-08
1.27823e-07
1.63422e-07
1.9642e-07
2.24366e-07
2.46566e-07
2.63375e-07
2.75608e-07
2.84201e-07
2.9004e-07
2.93885e-07
2.96342e-07
2.97868e-07
2.98788e-07
2.99329e-07
2.99638e-07
2.99811e-07
2.99904e-07
2.99954e-07
2.99979e-07
2.99992e-07
2.99998e-07
3e-07
3e-07
2.99997e-07
2.99991e-07
2.99976e-07
2.99943e-07
2.99872e-07
2.99726e-07
2.99439e-07
2.98895e-07
2.97909e-07
2.96194e-07
2.93335e-07
2.88766e-07
2.81763e-07
2.71488e-07
2.57073e-07
2.37775e-07
2.13182e-07
1.83448e-07
1.49495e-07
1.13107e-07
7.68221e-08
4.36991e-08
1.76954e-08
3.60109e-09
2.05559e-10
1.18862e-12
9.96103e-09
1.63428e-08
2.22558e-08
2.7406e-08
3.15888e-08
3.48338e-08
3.72605e-08
3.90147e-08
4.02419e-08
4.10736e-08
4.16202e-08
4.19689e-08
4.2185e-08
4.23152e-08
4.23916e-08
4.24353e-08
4.24596e-08
4.24728e-08
4.24798e-08
4.24833e-08
4.24851e-08
4.24861e-08
4.24863e-08
4.24863e-08
4.24861e-08
4.24853e-08
4.24835e-08
4.24793e-08
4.24701e-08
4.24509e-08
4.24123e-08
4.23384e-08
4.22032e-08
4.19664e-08
4.15694e-08
4.09324e-08
3.99538e-08
3.85158e-08
3.64976e-08
3.37969e-08
3.03606e-08
2.62169e-08
2.15035e-08
1.64856e-08
1.15458e-08
7.101e-09
3.46931e-09
9.90704e-10
7.67203e-11
4.76032e-13
4.0012e-10