/*--------------------------------*- C++ -*----------------------------------*\
| =========                 |                                                 |
| \\      /  F ield         | foam-extend: Open Source CFD                    |
|  \\    /   O peration     | Version:     4.0                                |
|   \\  /    A nd           | Web:         http://www.foam-extend.org         |
|    \\/     M anipulation  |                                                 |
\*---------------------------------------------------------------------------*/
FoamFile
{
    version     2.0;
    format      ascii;
    class       volScalarField;
    location    "0.0002";
    object      omega;
}
// * * * * * * * * * * * * * * * * * * * * * * * * * * * * * * * * * * * * * //

dimensions      [0 0 -1 0 0 0 0];

internalField   nonuniform List<scalar> 
28770
(
1.87595e+07
1.87595e+07
1.87595e+07
1.87595e+07
1.87595e+07
1.87595e+07
1.87595e+07
1.87595e+07
1.87595e+07
1.87595e+07
1.87595e+07
1.87595e+07
1.87595e+07
1.87595e+07
1.87595e+07
1.87595e+07
1.87595e+07
1.87595e+07
1.87595e+07
1.87595e+07
1.87595e+07
1.87595e+07
1.87595e+07
1.87595e+07
1.87595e+07
1.87595e+07
1.87595e+07
1.87595e+07
1.87595e+07
1.87595e+07
1.87595e+07
1.87595e+07
1.87595e+07
1.87595e+07
1.87595e+07
1.87595e+07
1.87595e+07
1.87595e+07
1.87595e+07
1.87595e+07
1.87595e+07
1.87595e+07
1.87595e+07
1.87595e+07
1.87595e+07
1.87595e+07
1.87595e+07
1.87595e+07
1.87595e+07
1.87595e+07
2.70017e+06
3.18574e+06
3.23008e+06
3.23475e+06
3.23537e+06
3.23549e+06
3.23552e+06
3.23553e+06
3.23553e+06
3.23553e+06
3.23553e+06
3.23553e+06
3.23553e+06
3.23554e+06
3.23554e+06
3.23554e+06
3.23554e+06
3.23554e+06
3.23554e+06
3.23554e+06
3.23554e+06
3.23554e+06
3.23554e+06
3.23554e+06
3.23554e+06
3.23554e+06
3.23554e+06
3.23554e+06
3.23554e+06
3.23554e+06
3.23554e+06
3.23554e+06
3.23554e+06
3.23554e+06
3.23554e+06
3.23555e+06
3.23555e+06
3.23555e+06
3.23556e+06
3.23556e+06
3.23558e+06
3.2356e+06
3.23567e+06
3.23584e+06
3.23643e+06
3.23891e+06
3.25305e+06
3.3621e+06
4.43127e+06
1.79872e+07
679460
1.01714e+06
1.08474e+06
1.09848e+06
1.10155e+06
1.10234e+06
1.10257e+06
1.10266e+06
1.10269e+06
1.1027e+06
1.10271e+06
1.10271e+06
1.10271e+06
1.10271e+06
1.10271e+06
1.10271e+06
1.10271e+06
1.10271e+06
1.10271e+06
1.10271e+06
1.10271e+06
1.10271e+06
1.10271e+06
1.10271e+06
1.10271e+06
1.10271e+06
1.10271e+06
1.10271e+06
1.10271e+06
1.10271e+06
1.10271e+06
1.10272e+06
1.10272e+06
1.10272e+06
1.10272e+06
1.10273e+06
1.10274e+06
1.10275e+06
1.10278e+06
1.10284e+06
1.10295e+06
1.10319e+06
1.10377e+06
1.10529e+06
1.10989e+06
1.12602e+06
1.19191e+06
1.50335e+06
3.24976e+06
1.79872e+07
228707
431057
496299
516092
522234
524262
524986
525267
525385
525438
525463
525475
525481
525484
525485
525486
525487
525487
525487
525487
525487
525488
525488
525488
525488
525488
525488
525489
525489
525490
525491
525494
525497
525504
525516
525537
525574
525641
525765
525997
526452
527400
529513
534626
548155
587425
712731
1.16002e+06
3.1232e+06
1.79872e+07
96364.9
214237
266637
287626
295857
299146
300512
301106
301377
301506
301569
301601
301617
301626
301630
301632
301634
301634
301635
301635
301635
301635
301635
301635
301636
301636
301636
301637
301638
301639
301642
301648
301658
301675
301707
301764
301866
302047
302375
302979
304127
306400
311137
321596
346169
407802
574725
1.08478e+06
3.10623e+06
1.79872e+07
48442.5
118989
158118
177303
186278
190443
192401
193341
193805
194039
194159
194222
194255
194272
194281
194286
194288
194290
194290
194291
194291
194291
194291
194292
194292
194292
194293
194294
194296
194299
194305
194316
194336
194373
194440
194559
194769
195140
195799
196980
199141
203213
211167
227368
261954
339969
530295
1.06585e+06
3.1032e+06
1.79872e+07
28018.7
72154.3
100792
117084
125811
130374
132748
133990
134646
134995
135183
135284
135339
135368
135384
135392
135396
135399
135400
135401
135401
135401
135401
135402
135402
135402
135403
135405
135408
135414
135424
135443
135479
135544
135660
135866
136227
136855
137946
139850
143213
149262
160425
181702
223908
312331
514644
1.06035e+06
3.10249e+06
1.79872e+07
18234.2
47504.9
68395.6
81729.7
89678.3
94254.5
96844.7
98300.4
99116.4
99573.3
99828.5
99970.4
100049
100092
100115
100128
100135
100138
100140
100141
100141
100142
100142
100142
100143
100144
100145
100147
100152
100160
100177
100207
100262
100361
100538
100850
101389
102314
103890
106572
111157
119083
133042
158292
205748
300336
508624
1.05851e+06
3.10227e+06
1.79872e+07
13140.5
33736
49239.1
60057.6
67063.9
71420.8
74063
75639.5
76569.5
77112.7
77427
77606.9
77708.7
77765.5
77796.9
77814
77823.2
77828
77830.6
77832
77832.7
77833.2
77833.6
77834
77834.5
77835.5
77837.3
77840.7
77847
77859.1
77881.7
77923.7
78000.3
78138
78381.7
78805.6
79532.1
80760.9
82818.2
86242
91937
101468
117644
145775
196651
294793
506090
1.05781e+06
3.10219e+06
1.79872e+07
10344
25778.4
37661.2
46458.7
52572.7
56610.1
59197.8
60819.4
61817.3
62421.5
62781.7
62993.1
63115.3
63184.8
63223.7
63245.1
63256.7
63262.9
63266.2
63267.9
63268.9
63269.5
63270
63270.5
63271.2
63272.5
63274.9
63279.3
63287.6
63303.3
63332.6
63386.7
63485.1
63660.9
63969.6
64502.3
65405.8
66914.9
69403.2
73468.6
80084.2
90879
108697
138808
191846
292033
504901
1.05749e+06
3.10215e+06
1.79872e+07
8751.64
21056.4
30613
37863.3
43210.8
46915.2
49395.5
51011.9
52041.1
52682.9
53075.2
53310.4
53448.8
53528.7
53573.9
53599.2
53613
53620.4
53624.4
53626.5
53627.7
53628.4
53629
53629.7
53630.6
53632.3
53635.2
53640.7
53651
53670.2
53705.9
53771.4
53889.9
54100.4
54467.5
55095.8
56151.9
57897
60738.5
65313.3
72633.2
84353
103312
134721
189086
290457
504201
1.05729e+06
3.10213e+06
1.79872e+07
7825.02
18215.2
26286.1
32454.1
37161.7
40575.4
42935.7
44520.4
45556.7
46218
46630.5
46882.2
47032.4
47120.3
47170.7
47199
47214.7
47223.2
47227.8
47230.2
47231.6
47232.5
47233.2
47234.1
47235.3
47237.3
47240.9
47247.4
47259.5
47282
47323.4
47398.9
47534.5
47774
48189.1
48894.6
50071.2
51998.3
55105
60050.7
67864.6
80204.1
99887.8
132074
187188
289205
503460
1.05694e+06
3.10205e+06
1.79872e+07
7279
16490.1
23612.3
29083.2
33293.6
36463.1
38711.5
40255.5
41285.6
41954.7
42378.6
42640.7
42799.1
42892.7
42946.9
42977.6
42994.7
43004
43009.1
43011.9
43013.5
43014.5
43015.4
43016.5
43018
43020.5
43024.7
43032.3
43046.2
43071.4
43117.6
43201.2
43350.4
43612.2
44063.4
44825.7
46088.6
48142.5
51428
56614.8
64734.6
77427
97479.8
129998
185349
287487
501843
1.05566e+06
3.1015e+06
1.79872e+07
6955.81
15439.6
21961
26983.5
30846.4
33820.1
35980.9
37486.8
38505.7
39176
39605.5
39873.8
40037.4
40134.8
40191.7
40224.1
40242.2
40252.3
40257.7
40260.8
40262.6
40263.8
40265
40266.3
40268.2
40271.3
40276.3
40285
40300.4
40328.1
40378
40467.7
40626.7
40904.2
41379.7
42179
43496
45625.3
49011.3
54324.9
62593.6
75403.5
95497.5
127890
182811
284063
497056
1.04961e+06
3.09629e+06
1.79872e+07
6764.75
14801.5
20946.8
25685.1
29323.4
32146.3
34240.4
35714.8
36721.9
37390.4
37822.1
38093.8
38260.6
38360.5
38419.1
38452.7
38471.6
38482.2
38488
38491.2
38493.2
38494.7
38496.2
38497.9
38500.4
38504.1
38510
38519.9
38536.8
38566.6
38619.5
38713.4
38878.8
39165.8
39655.3
40474.2
41817.2
43977.8
47395.3
52733.9
61047.6
73761.9
93587.4
125337
178818
276899
482894
1.02051e+06
3.04091e+06
1.79872e+07
6652.25
14416
20327.8
24885.7
28382.3
31102
33146.5
34596.8
35593.9
36259.6
36691.9
36965.3
37133.9
37235.4
37295.1
37329.5
37349
37359.8
37365.9
37369.4
37371.7
37373.4
37375.3
37377.6
37380.7
37385.4
37392.4
37403.6
37422.1
37453.8
37509
37605.7
37774.7
38066.2
38561.3
39386
40733.2
42890.4
46280.5
51515
57321.4
69081.1
86505.8
114026
159298
239235
397161
770861
2.00892e+06
1.20424e+07
6586.24
14184.4
19952.5
24397
27804.6
30454.8
32464.4
33898.8
34888.7
35552
35984.3
36258.5
36428
36530.4
36590.8
36625.7
36645.5
36656.7
36663
36666.7
36669.3
36671.4
36673.8
36676.8
36680.9
36686.7
36695.1
36707.9
36728.2
36761.8
36818.9
36917.5
37088
37380.4
37874.8
38695.9
40033.2
42169.1
45518.9
50692.2
56429.1
67879.1
84893.6
111611
155281
231935
383179
747023
2.01434e+06
1.24057e+07
6547.48
14045.6
19725.8
24100.1
27452.8
30053
32038
33464
34449.6
35111.3
35543.3
35817.8
35987.9
36090.8
36151.6
36186.8
36206.9
36218.2
36224.7
36228.7
36231.6
36234.3
36237.4
36241.3
36246.6
36253.9
36264.2
36279
36301.4
36337.1
36396
36495.8
36666.5
36957.4
37447.1
38258.2
39576.8
41679.7
44973.9
50055.7
55710.4
66858.9
83481.1
109496
151903
226382
373565
730659
1.9889e+06
1.23852e+07
6524.5
13962
19588.3
23919
27237.6
29800.5
31767.8
33190.1
34173.7
34834.4
35266.1
35540.8
35711.1
35814.3
35875.3
35910.7
35931
35942.5
35949.2
35953.5
35956.8
35960.1
35964
35969.1
35976
35985.2
35997.7
36015
36040
36078.1
36138.9
36239.8
36410
36697.9
37180.6
37978.4
39273.5
41337.2
44568.2
49550.3
55113.9
65984
82241.9
107625
148788
233597
388243
766424
2.12101e+06
1.69429e+07
6510.55
13910.7
19503.5
23806.4
27102.8
29637.7
31591.8
33012.5
33995.1
34655.4
35086.9
35361.5
35531.9
35635.1
35696.3
35731.8
35752.2
35763.8
35770.8
35775.4
35779.2
35783.2
35788.1
35794.7
35803.4
35815
35830.3
35850.6
35878.7
35919.6
35982.6
36084.6
36254.1
36538.4
37013.2
37796.1
39065.8
41088.3
44254.5
49137
54605.5
65223
81150.4
105999
146262
229135
379509
745883
2.0743e+06
1.69164e+07
6501.68
13878.1
19449.1
23733.7
27014.5
29528.3
31472.2
32891.7
33873.7
34533.6
34964.9
35239.4
35409.7
35512.9
35574.1
35609.7
35630.1
35641.9
35649.1
35654
35658.4
35663.2
35669.3
35677.6
35688.5
35702.9
35721.4
35745.2
35776.9
35821
35886.5
35989.7
36158.6
36439.3
36906
37674.1
38918.6
40900.4
44003.2
48788.4
54160
64544.7
80164
104543
144076
225585
373954
737858
2.06707e+06
1.69157e+07
6495.67
13856.3
19412.7
23684.4
26953.6
29451.2
31386.7
32804.9
33786.4
34445.8
34876.7
35150.9
35321
35424.1
35485.2
35520.8
35541.3
35553.3
35560.7
35566
35570.9
35576.6
35584
35594.1
35607.5
35624.9
35647
35674.8
35710.3
35757.9
35826.1
35930.7
36099.2
36376.6
36835.9
37590.1
38811.1
40754.8
43797.5
48489.4
53765.1
63922.8
79229
103118
141868
221735
367276
723962
2.02474e+06
1.67948e+07
6491.38
13841.2
19387.4
23649.8
26910.2
29395.5
31323.3
32740.1
33720.9
34379.7
34810.1
35083.9
35253.7
35356.7
35417.7
35453.3
35473.9
35485.9
35493.5
35499.2
35504.6
35511.2
35519.9
35531.8
35547.7
35568.3
35594.2
35626
35665.4
35716.4
35787.3
35893.4
36061.6
36336.4
36789.3
37531.6
38732.1
40642.3
43631.2
48237.2
53424.9
63350.4
78319.5
101629
139338
216604
356942
696911
2.07583e+06
1.19266e+07
6488.34
13830.8
19370.1
23625.9
26879.9
29356.3
31276.4
32691.9
33672.5
34330.7
34760.5
35033.8
35203.4
35306.1
35367.1
35402.6
35423.2
35435.4
35443.1
35449.1
35455
35462.3
35472.1
35485.6
35503.8
35527.5
35556.9
35592.5
35635.5
35689.5
35762.7
35870.1
36038.3
36311.1
36759.1
37492.1
38676.6
40560.1
43505.3
48039.9
53159.5
62852
77474.8
100123
136472
209867
341470
659071
1.98874e+06
1.1824e+07
6486.44
13824.5
19359.6
23611.4
26861.5
29332.3
31244.5
32659.5
33640.6
34298.5
34727.7
35000.6
35169.8
35272.4
35333.2
35368.8
35389.3
35401.5
35409.4
35415.5
35421.8
35429.6
35440.2
35454.9
35474.9
35501
35533.5
35572
35617.5
35673.7
35748.5
35856.9
36025.1
36296.6
36741.6
37468.6
38642.6
40508.6
43424.6
47910.1
52995
62480.3
76807.6
98837.5
133761
202621
320625
584510
1.2924e+06
5.51329e+06
6485.25
13822.2
19356.1
23606.7
26855.6
29324.8
31231.4
32646.8
33628.8
34286.5
34715.4
34988
35157
35259.5
35320.3
35355.8
35376.4
35388.6
35396.5
35402.7
35409
35417
35427.9
35443.1
35463.8
35491.3
35525.3
35565
35611.6
35668.6
35744
35852.7
36020.9
36292
36735.9
37460.8
38631.2
40491.1
43396.7
47864.6
52961.4
62301.8
76475.1
98163.9
132236
198640
307239
524715
967350
1.97667e+06
6485.75
13824.4
19359.8
23611.8
26861.9
29332.6
31244.8
32659.7
33640.8
34298.7
34728
35000.8
35170
35272.6
35333.5
35369
35389.6
35401.8
35409.6
35415.7
35422
35429.8
35440.4
35455.1
35475.1
35501.2
35533.7
35572.2
35617.7
35673.9
35748.8
35857.1
36025.3
36296.9
36741.8
37468.9
38642.9
40508.9
43424.9
47910.5
53065.1
62363
76589.8
98398.7
132776
201139
315759
563561
1.23053e+06
4.58403e+06
6487.63
13830.7
19370.4
23626.4
26880.5
29356.7
31276.8
32692.1
33672.8
34331.1
34760.9
35034.2
35203.7
35306.5
35367.4
35403
35423.5
35435.7
35443.4
35449.4
35455.3
35462.6
35472.4
35485.9
35504.1
35527.8
35557.2
35592.8
35635.8
35689.8
35763
35870.5
36038.6
36311.5
36759.5
37492.5
38676.9
40560.5
43505.8
48040.5
53284.9
62647.9
77112.2
99434.8
135052
208027
336585
644111
1.64017e+06
1.17257e+07
6491.18
13841.2
19387.8
23650.3
26910.7
29395.9
31323.6
32740.3
33721.1
34380
34810.4
35084.2
35254
35357
35418
35453.6
35474.1
35486.2
35493.8
35499.4
35504.9
35511.4
35520.2
35532
35547.9
35568.6
35594.4
35626.3
35665.7
35716.7
35787.6
35893.8
36062
36336.8
36789.7
37531.9
38732.4
40642.6
43631.5
48237.8
53591.6
63090.4
77885.3
100871
137937
215085
353683
689618
1.75025e+06
1.19208e+07
6495.51
13856.4
19413.2
23685
26954.1
29451.6
31386.9
32805
33786.5
34446
34876.9
35151.1
35321.2
35424.3
35485.4
35521
35541.5
35553.5
35560.8
35566.1
35571.1
35576.8
35584.2
35594.2
35607.6
35625.1
35647.2
35675
35710.5
35758.1
35826.3
35931
36099.4
36376.9
36836.2
37590.3
38811.2
40754.8
43797.6
48489.8
53960.7
63631.1
78772.4
102386
140660
220615
365082
717975
1.99402e+06
1.63319e+07
6501.36
13878.2
19449.7
23734.4
27015.1
29528.7
31472.4
32891.7
33873.8
34533.8
34965
35239.5
35409.8
35513
35574.2
35609.7
35630.2
35642
35649.1
35654.1
35658.5
35663.3
35669.4
35677.7
35688.6
35703
35721.5
35745.4
35777
35821.1
35886.7
35990
36158.8
36439.6
36906.2
37674.1
38918.5
40900.2
44003
48788.6
54380.2
64229.1
79694.5
103837
143003
224714
372556
735523
2.06339e+06
1.69147e+07
6510.02
13910.9
19504.2
23807.4
27103.6
29638.3
31592.1
33012.6
33995.2
34655.5
35087
35361.6
35532
35635.2
35696.3
35731.9
35752.2
35763.9
35770.8
35775.4
35779.2
35783.2
35788.2
35794.7
35803.5
35815.1
35830.4
35850.7
35878.8
35919.7
35982.8
36084.8
36254.3
36538.6
37013.3
37796
39065.4
41087.7
44254
49136.9
54854.1
64876.4
80648.8
105260
145152
228218
378003
743561
2.07224e+06
1.69162e+07
6523.82
13962.3
19589.4
23920.4
27238.8
29801.4
31768.2
33190.3
34173.9
34834.6
35266.3
35540.9
35711.2
35814.3
35875.4
35910.8
35931
35942.5
35949.2
35953.5
35956.8
35960.1
35964
35969.2
35976
35985.3
35997.8
36015.1
36040.1
36078.2
36139.1
36240
36410.2
36698
37180.6
37978.1
39272.8
41336.1
44567.2
49549.8
55402.4
65591.6
81680.5
106785
147465
232359
385576
758798
2.0968e+06
1.69199e+07
6546.8
14046.2
19727.4
24102
27454.4
30054.1
32038.7
33464.4
34450
35111.6
35543.4
35817.9
35988
36090.9
36151.7
36186.9
36207
36218.3
36224.8
36228.8
36231.7
36234.4
36237.4
36241.4
36246.7
36254
36264.3
36279.1
36301.6
36337.2
36396.2
36496
36666.7
36957.4
37446.9
38257.7
39575.8
41678.4
44972.6
50054.9
56054.9
66405.7
82842.3
108533
150334
223867
368213
716104
1.93334e+06
1.21639e+07
6585.92
14185.7
19954.9
24399.8
27806.8
30456.4
32465.4
33899.5
34889.2
35552.4
35984.5
36258.6
36428.1
36530.5
36590.9
36625.8
36645.7
36656.8
36663.1
36666.8
36669.4
36671.5
36673.9
36676.9
36681
36686.8
36695.3
36708.1
36728.4
36762
36819.1
36917.7
37088.1
37380.4
37874.5
38695.2
40032.1
42167.8
45518.1
50692.5
56852.7
67349.9
84165.6
110522
153537
229045
378354
739947
2.00777e+06
1.24058e+07
6652.89
14418.5
20331.5
24889.4
28385.3
31104
33147.8
34597.7
35594.5
36260
36692.2
36965.5
37134
37235.5
37295.2
37329.7
37349.1
37360
37366.1
37369.6
37371.8
37373.6
37375.5
37377.8
37380.9
37385.5
37392.6
37403.8
37422.3
37454
37509.2
37605.9
37774.7
38066.1
38560.9
39385.3
40732.2
42889.6
46281.1
51516.9
57878.4
68457.2
85675.8
112783
157198
235277
389079
755722
2.01699e+06
1.23779e+07
6767.14
14805.9
20952
25689.8
29327
32148.8
34242.1
35715.9
36722.7
37390.8
37822.4
38094
38260.7
38360.7
38419.3
38452.9
38471.9
38482.4
38488.2
38491.5
38493.5
38495
38496.4
38498.2
38500.6
38504.3
38510.3
38520.1
38537
38566.8
38619.7
38713.5
38878.8
39165.6
39654.8
40473.3
41816.1
43977.2
47396.6
52737.3
61050.5
73763.5
93589
125338
178818
276898
482893
1.02051e+06
3.04091e+06
1.79872e+07
6960.89
15446.4
21967.9
26989.3
30850.7
33823
35982.8
37488.1
38506.5
39176.5
39605.7
39874
40037.5
40135
40191.9
40224.3
40242.5
40252.5
40258
40261.1
40262.9
40264.1
40265.3
40266.6
40268.5
40271.6
40276.6
40285.3
40300.7
40328.3
40378.2
40467.8
40626.6
40903.8
41379
42177.9
43494.5
45624.2
49011.4
54326.8
62596
75405.2
95498.8
127890
182810
284061
497054
1.04961e+06
3.09629e+06
1.79872e+07
7287.65
16499.8
23620.9
29089.9
33298.4
36466.2
38713.5
40256.7
41286.3
41955.1
42378.8
42640.8
42799.2
42892.9
42947.1
42977.8
42994.9
43004.3
43009.4
43012.2
43013.8
43014.9
43015.8
43016.8
43018.3
43020.8
43025.1
43032.7
43046.5
43071.7
43117.8
43201.2
43350.1
43611.7
44062.5
44824.3
46086.8
48140.6
51426.7
56614.4
64734.8
77427.4
97480.1
129998
185348
287485
501842
1.05566e+06
3.1015e+06
1.79872e+07
7837.71
18227.7
26295.8
32461
37166.3
40578.4
42937.5
44521.4
45557.2
46218.2
46630.6
46882.2
47032.5
47120.4
47170.9
47199.2
47214.9
47223.5
47228.1
47230.5
47231.9
47232.8
47233.5
47234.4
47235.6
47237.6
47241.2
47247.7
47259.8
47282.2
47323.5
47398.8
47534.2
47773.3
48187.8
48892.8
50068.8
51995.6
55102.3
60048.5
67863
80203
99887
132072
187187
289204
503459
1.05694e+06
3.10205e+06
1.79872e+07
8768
21070.7
30622.8
37869.7
43214.9
46917.6
49396.9
51012.5
52041.3
52682.9
53075
53310.3
53448.7
53528.6
53574
53599.3
53613.1
53620.6
53624.6
53626.8
53628
53628.7
53629.3
53629.9
53630.9
53632.5
53635.4
53640.9
53651.1
53670.3
53705.9
53771.2
53889.4
54099.4
54465.9
55093.6
56149.1
57893.7
60734.9
65309.9
72630.2
84350.7
103310
134719
189085
290456
504200
1.05728e+06
3.10213e+06
1.79872e+07
10362.2
25792.4
37669.6
46463.8
52575.7
56611.7
59198.5
60819.6
61817.2
62421.2
62781.4
62992.8
63115.1
63184.6
63223.6
63245.1
63256.7
63263
63266.3
63268
63269
63269.6
63270.1
63270.6
63271.3
63272.6
63274.9
63279.3
63287.6
63303.2
63332.4
63386.3
63484.4
63659.8
63967.9
64500
65402.8
66911.3
69399.3
73464.6
80080.6
90876.1
108695
138807
191845
292032
504901
1.05749e+06
3.10215e+06
1.79872e+07
13157.2
33746.9
49244.7
60060.8
67065.4
71421.3
74062.9
75639.2
76569
77112.2
77426.4
77606.4
77708.3
77765.3
77796.7
77813.8
77823.1
77828
77830.5
77831.9
77832.7
77833.1
77833.5
77833.9
77834.5
77835.5
77837.2
77840.6
77846.9
77858.9
77881.4
77923.1
77999.4
78136.8
78380
78803.3
79529.3
80757.5
82814.5
86238.3
91933.7
101465
117643
145774
196651
294793
506090
1.05781e+06
3.10219e+06
1.79872e+07
18245.6
47511
68398.4
81730.8
89678.3
94253.9
96843.9
98299.6
99115.6
99572.5
99827.8
99969.9
100048
100092
100115
100128
100134
100138
100140
100141
100141
100142
100142
100142
100143
100143
100145
100147
100152
100160
100176
100206
100261
100360
100537
100848
101386
102311
103887
106569
111155
119081
133041
158292
205748
300336
508624
1.05851e+06
3.10227e+06
1.79872e+07
28022.5
72155.8
100793
117083
125810
130373
132747
133989
134645
134995
135182
135284
135338
135368
135383
135392
135396
135398
135400
135400
135401
135401
135401
135401
135402
135402
135403
135405
135408
135413
135424
135443
135478
135543
135659
135865
136225
136853
137944
139849
143211
149260
160424
181701
223909
312331
514644
1.06035e+06
3.10249e+06
1.79872e+07
48440.6
118988
158117
177301
186277
190442
192400
193340
193804
194038
194158
194221
194254
194272
194281
194286
194288
194289
194290
194291
194291
194291
194291
194291
194292
194292
194293
194293
194295
194298
194304
194315
194336
194373
194439
194558
194768
195139
195797
196979
199140
203213
211166
227368
261954
339969
530295
1.06585e+06
3.1032e+06
1.79872e+07
96361.4
214235
266636
287625
295855
299145
300511
301105
301376
301505
301569
301601
301617
301625
301630
301632
301633
301634
301634
301635
301635
301635
301635
301635
301635
301636
301636
301637
301638
301639
301642
301648
301657
301675
301707
301764
301865
302047
302374
302979
304127
306400
311137
321597
346170
407802
574726
1.08478e+06
3.10623e+06
1.79872e+07
228706
431056
496299
516091
522234
524261
524986
525267
525385
525438
525462
525474
525481
525484
525485
525486
525487
525487
525487
525487
525487
525487
525488
525488
525488
525488
525488
525489
525489
525490
525491
525493
525497
525504
525516
525536
525574
525641
525764
525997
526452
527400
529513
534627
548155
587425
712732
1.16002e+06
3.1232e+06
1.79872e+07
679460
1.01714e+06
1.08474e+06
1.09848e+06
1.10155e+06
1.10234e+06
1.10257e+06
1.10266e+06
1.10269e+06
1.1027e+06
1.10271e+06
1.10271e+06
1.10271e+06
1.10271e+06
1.10271e+06
1.10271e+06
1.10271e+06
1.10271e+06
1.10271e+06
1.10271e+06
1.10271e+06
1.10271e+06
1.10271e+06
1.10271e+06
1.10271e+06
1.10271e+06
1.10271e+06
1.10271e+06
1.10271e+06
1.10271e+06
1.10271e+06
1.10272e+06
1.10272e+06
1.10272e+06
1.10272e+06
1.10273e+06
1.10274e+06
1.10275e+06
1.10278e+06
1.10284e+06
1.10295e+06
1.1032e+06
1.10377e+06
1.10529e+06
1.10989e+06
1.12602e+06
1.19191e+06
1.50335e+06
3.24976e+06
1.79872e+07
2.70017e+06
3.18574e+06
3.23008e+06
3.23475e+06
3.23537e+06
3.23549e+06
3.23552e+06
3.23553e+06
3.23553e+06
3.23553e+06
3.23553e+06
3.23553e+06
3.23553e+06
3.23554e+06
3.23554e+06
3.23554e+06
3.23554e+06
3.23554e+06
3.23554e+06
3.23554e+06
3.23554e+06
3.23554e+06
3.23554e+06
3.23554e+06
3.23554e+06
3.23554e+06
3.23554e+06
3.23554e+06
3.23554e+06
3.23554e+06
3.23554e+06
3.23554e+06
3.23554e+06
3.23554e+06
3.23554e+06
3.23555e+06
3.23555e+06
3.23555e+06
3.23556e+06
3.23556e+06
3.23558e+06
3.2356e+06
3.23567e+06
3.23584e+06
3.23643e+06
3.23891e+06
3.25305e+06
3.3621e+06
4.43127e+06
1.79872e+07
1.87595e+07
1.87595e+07
1.87595e+07
1.87595e+07
1.87595e+07
1.87595e+07
1.87595e+07
1.87595e+07
1.87595e+07
1.87595e+07
1.87595e+07
1.87595e+07
1.87595e+07
1.87595e+07
1.87595e+07
1.87595e+07
1.87595e+07
1.87595e+07
1.87595e+07
1.87595e+07
1.87595e+07
1.87595e+07
1.87595e+07
1.87595e+07
1.87595e+07
1.87595e+07
1.87595e+07
1.87595e+07
1.87595e+07
1.87595e+07
1.87595e+07
1.87595e+07
1.87595e+07
1.87595e+07
1.87595e+07
1.87595e+07
1.87595e+07
1.87595e+07
1.87595e+07
1.87595e+07
1.87595e+07
1.87595e+07
1.87595e+07
1.87595e+07
1.87595e+07
1.87595e+07
1.87595e+07
1.87595e+07
1.87595e+07
1.87595e+07
6.64468e+07
6.76661e+07
6.76665e+07
6.76694e+07
6.76614e+07
6.76056e+07
6.77427e+07
6.74317e+07
6.70917e+07
6.71995e+07
6.72003e+07
6.71991e+07
6.70183e+07
6.76298e+07
6.76832e+07
6.76861e+07
6.76733e+07
6.76668e+07
6.76622e+07
6.76637e+07
3.10499e+06
3.31599e+06
3.32433e+06
3.32457e+06
3.31907e+06
3.28868e+06
3.24982e+06
3.22962e+06
3.22291e+06
3.23984e+06
3.23858e+06
3.22943e+06
3.22661e+06
3.26434e+06
3.30253e+06
3.32596e+06
3.32465e+06
3.32464e+06
3.32227e+06
3.25286e+06
1.15726e+07
1.19499e+07
1.19514e+07
1.19501e+07
1.19904e+07
1.23552e+07
1.15044e+07
1.1577e+07
1.11165e+07
1.10821e+07
1.10821e+07
1.1085e+07
1.14495e+07
1.11797e+07
1.1492e+07
1.19257e+07
1.19334e+07
1.19489e+07
1.19512e+07
1.19097e+07
1.87595e+07
1.87595e+07
1.87595e+07
1.87595e+07
1.87595e+07
1.87595e+07
1.87595e+07
1.87595e+07
1.87595e+07
1.87595e+07
1.87595e+07
1.87595e+07
1.87595e+07
1.87595e+07
1.87595e+07
1.87595e+07
1.87595e+07
1.87595e+07
1.87595e+07
1.87595e+07
1.87595e+07
1.87595e+07
1.87595e+07
1.87595e+07
1.87595e+07
1.87595e+07
1.87595e+07
1.87595e+07
1.87595e+07
1.87595e+07
1.87595e+07
1.87595e+07
1.87595e+07
1.87595e+07
1.87595e+07
1.87595e+07
1.87595e+07
1.87595e+07
1.87595e+07
1.87595e+07
1.87595e+07
1.87595e+07
1.87595e+07
1.87595e+07
1.87595e+07
1.87595e+07
1.87595e+07
1.87595e+07
1.87595e+07
1.87595e+07
1.87595e+07
1.87595e+07
1.87595e+07
1.87595e+07
1.87595e+07
1.87595e+07
1.87595e+07
1.87595e+07
1.87595e+07
1.87595e+07
1.87595e+07
1.87595e+07
1.87595e+07
1.87595e+07
1.87595e+07
1.87595e+07
1.87595e+07
1.87595e+07
1.87595e+07
1.87595e+07
1.87595e+07
1.87595e+07
1.87595e+07
1.87595e+07
1.87595e+07
1.87595e+07
1.87595e+07
1.87595e+07
1.87595e+07
1.87595e+07
1.87595e+07
1.87595e+07
1.87595e+07
1.87595e+07
1.87595e+07
1.87595e+07
1.87595e+07
1.87595e+07
1.87595e+07
1.87595e+07
1.87595e+07
1.87595e+07
1.87595e+07
1.87595e+07
1.87595e+07
1.87595e+07
1.87595e+07
1.87595e+07
1.87595e+07
1.87595e+07
1.79872e+07
4.43127e+06
3.36208e+06
3.25303e+06
3.23888e+06
3.2364e+06
3.23582e+06
3.23564e+06
3.23558e+06
3.23555e+06
3.23554e+06
3.23554e+06
3.23553e+06
3.23553e+06
3.23553e+06
3.23553e+06
3.23553e+06
3.23553e+06
3.23553e+06
3.23553e+06
3.23553e+06
3.23553e+06
3.23553e+06
3.23553e+06
3.23553e+06
3.23553e+06
3.23553e+06
3.23553e+06
3.23553e+06
3.23553e+06
3.23553e+06
3.23553e+06
3.23553e+06
3.23553e+06
3.23553e+06
3.23553e+06
3.23553e+06
3.23553e+06
3.23553e+06
3.23553e+06
3.23553e+06
3.23553e+06
3.23553e+06
3.23553e+06
3.23553e+06
3.23553e+06
3.23553e+06
3.23553e+06
3.23553e+06
3.23553e+06
3.23553e+06
3.23553e+06
3.23553e+06
3.23553e+06
3.23553e+06
3.23553e+06
3.23553e+06
3.23553e+06
3.23553e+06
3.23553e+06
3.23553e+06
3.23553e+06
3.23553e+06
3.23553e+06
3.23553e+06
3.23553e+06
3.23553e+06
3.23553e+06
3.23553e+06
3.23553e+06
3.23553e+06
3.23553e+06
3.23553e+06
3.23553e+06
3.23553e+06
3.23553e+06
3.23553e+06
3.23553e+06
3.23553e+06
3.23553e+06
3.23553e+06
3.23553e+06
3.23553e+06
3.23553e+06
3.23553e+06
3.23553e+06
3.23553e+06
3.23553e+06
3.23553e+06
3.23553e+06
3.23553e+06
3.23553e+06
3.23553e+06
3.23553e+06
3.23553e+06
3.23553e+06
3.23553e+06
3.23553e+06
3.23553e+06
3.23553e+06
1.79872e+07
3.24978e+06
1.50335e+06
1.1919e+06
1.12601e+06
1.10987e+06
1.10528e+06
1.10375e+06
1.10318e+06
1.10294e+06
1.10283e+06
1.10277e+06
1.10274e+06
1.10273e+06
1.10272e+06
1.10271e+06
1.10271e+06
1.10271e+06
1.10271e+06
1.10271e+06
1.10271e+06
1.10271e+06
1.10271e+06
1.10271e+06
1.10271e+06
1.10271e+06
1.10271e+06
1.10271e+06
1.10271e+06
1.10271e+06
1.10271e+06
1.10271e+06
1.10271e+06
1.10271e+06
1.10271e+06
1.10271e+06
1.10271e+06
1.10271e+06
1.10271e+06
1.10271e+06
1.10271e+06
1.10271e+06
1.10271e+06
1.10271e+06
1.10271e+06
1.10271e+06
1.10271e+06
1.10271e+06
1.10271e+06
1.10271e+06
1.10271e+06
1.10271e+06
1.10271e+06
1.10271e+06
1.10271e+06
1.10271e+06
1.10271e+06
1.10271e+06
1.10271e+06
1.10271e+06
1.10271e+06
1.10271e+06
1.10271e+06
1.10271e+06
1.10271e+06
1.10271e+06
1.10271e+06
1.10271e+06
1.10271e+06
1.10271e+06
1.10271e+06
1.10271e+06
1.10271e+06
1.10271e+06
1.10271e+06
1.10271e+06
1.10271e+06
1.10271e+06
1.10271e+06
1.10271e+06
1.10271e+06
1.10271e+06
1.10271e+06
1.10271e+06
1.10271e+06
1.10271e+06
1.10271e+06
1.10271e+06
1.10271e+06
1.10271e+06
1.10271e+06
1.10271e+06
1.10271e+06
1.10271e+06
1.10271e+06
1.10271e+06
1.10271e+06
1.10271e+06
1.10271e+06
1.10271e+06
1.79872e+07
3.12323e+06
1.16003e+06
712732
587418
548145
534614
529501
527387
526440
525985
525754
525631
525565
525528
525508
525497
525491
525488
525486
525486
525485
525485
525485
525485
525485
525486
525486
525486
525486
525486
525486
525486
525486
525486
525486
525486
525486
525486
525486
525486
525486
525486
525486
525486
525486
525486
525486
525486
525486
525487
525487
525487
525487
525487
525487
525487
525487
525487
525487
525487
525487
525487
525487
525487
525487
525487
525487
525487
525487
525487
525487
525487
525487
525487
525487
525487
525487
525487
525487
525487
525487
525487
525487
525487
525487
525487
525487
525487
525487
525487
525487
525487
525487
525487
525486
525486
525486
525486
525485
1.79872e+07
3.10626e+06
1.08479e+06
574734
407803
346165
321589
311127
306389
304116
302969
302365
302038
301857
301756
301700
301669
301652
301643
301638
301636
301634
301634
301634
301634
301633
301634
301634
301634
301634
301634
301634
301634
301634
301634
301634
301634
301634
301634
301634
301634
301634
301634
301634
301634
301634
301634
301634
301634
301634
301634
301634
301634
301634
301634
301634
301634
301634
301634
301634
301634
301634
301634
301634
301634
301634
301634
301634
301634
301634
301634
301634
301634
301634
301634
301634
301634
301634
301634
301634
301634
301634
301634
301634
301634
301634
301634
301634
301634
301634
301634
301634
301634
301634
301634
301634
301634
301634
301633
301632
1.79872e+07
3.10324e+06
1.06587e+06
530309
339977
261956
227366
211161
203205
199133
196971
195790
195132
194762
194552
194435
194369
194333
194313
194302
194297
194294
194292
194291
194291
194291
194291
194290
194290
194290
194290
194290
194290
194290
194290
194290
194290
194290
194290
194290
194290
194290
194290
194290
194290
194290
194290
194290
194290
194290
194290
194290
194290
194290
194290
194290
194290
194290
194290
194290
194290
194290
194290
194290
194290
194290
194290
194290
194290
194290
194290
194290
194290
194290
194290
194290
194290
194290
194290
194290
194290
194290
194290
194290
194290
194290
194290
194290
194290
194290
194290
194290
194290
194290
194290
194290
194291
194291
194290
194289
1.79872e+07
3.10252e+06
1.06037e+06
514661
312343
223916
181704
160423
149257
143207
139844
137940
136849
136223
135863
135659
135543
135479
135444
135425
135415
135410
135407
135405
135404
135403
135402
135402
135401
135401
135401
135401
135401
135401
135401
135401
135401
135401
135401
135401
135401
135401
135401
135401
135401
135401
135401
135401
135401
135401
135401
135401
135401
135401
135401
135401
135401
135401
135401
135400
135400
135400
135400
135400
135400
135400
135400
135400
135400
135400
135400
135400
135400
135400
135400
135400
135400
135400
135400
135400
135400
135400
135400
135400
135400
135400
135400
135400
135400
135400
135400
135400
135400
135401
135401
135401
135401
135402
135402
135401
1.79872e+07
3.10231e+06
1.05854e+06
508644
300352
205760
158299
133044
119082
111155
106569
103888
102313
101390
100853
100544
100368
100269
100215
100185
100169
100160
100155
100152
100149
100148
100146
100145
100144
100143
100143
100143
100142
100142
100142
100142
100142
100142
100142
100142
100142
100142
100142
100142
100142
100142
100142
100141
100141
100141
100141
100141
100141
100141
100141
100141
100141
100141
100141
100141
100141
100141
100141
100141
100141
100141
100141
100141
100141
100141
100141
100141
100141
100141
100141
100141
100141
100141
100141
100141
100141
100141
100141
100141
100141
100141
100141
100141
100141
100141
100141
100141
100141
100141
100142
100142
100143
100143
100144
100144
1.79872e+07
3.10223e+06
1.05783e+06
506113
294812
196666
145785
117650
101471
91939
86245.1
82823.9
80770
79544.8
78821.6
78400.5
78159
78022.6
77946.6
77904.6