/*--------------------------------*- C++ -*----------------------------------*\
| =========                 |                                                 |
| \\      /  F ield         | foam-extend: Open Source CFD                    |
|  \\    /   O peration     | Version:     4.0                                |
|   \\  /    A nd           | Web:         http://www.foam-extend.org         |
|    \\/     M anipulation  |                                                 |
\*---------------------------------------------------------------------------*/
FoamFile
{
    version     2.0;
    format      ascii;
    class       surfaceScalarField;
    location    "0.0002";
    object      phi;
}
// * * * * * * * * * * * * * * * * * * * * * * * * * * * * * * * * * * * * * //

dimensions      [0 3 -1 0 0 0 0];

internalField   nonuniform List<scalar> 
57362
(
3.12157e-11
1.85326e-15
3.12101e-11
5.58807e-15
3.12007e-11
9.4082e-15
3.11873e-11
1.33718e-14
3.11698e-11
1.75393e-14
3.11478e-11
2.19735e-14
3.11211e-11
2.67414e-14
3.10891e-11
3.19145e-14
3.10516e-11
3.75695e-14
3.10078e-11
4.37901e-14
3.09571e-11
5.06672e-14
3.08988e-11
5.83003e-14
3.0832e-11
6.67988e-14
3.07557e-11
7.62825e-14
3.06688e-11
8.68835e-14
3.057e-11
9.87467e-14
3.0458e-11
1.12031e-13
3.03311e-11
1.26912e-13
3.01875e-11
1.43578e-13
3.00252e-11
1.62238e-13
2.98421e-11
1.83115e-13
2.96356e-11
2.06452e-13
2.94031e-11
2.32505e-13
2.91415e-11
2.61549e-13
2.88476e-11
2.93871e-13
2.85178e-11
3.29764e-13
2.81482e-11
3.69532e-13
2.77347e-11
4.13471e-13
2.72728e-11
4.61872e-13
2.67577e-11
5.14992e-13
2.61846e-11
5.73078e-13
2.55483e-11
6.36276e-13
2.48435e-11
7.04738e-13
2.4065e-11
7.78387e-13
2.32078e-11
8.57236e-13
2.22669e-11
9.40826e-13
2.12379e-11
1.02898e-12
2.01171e-11
1.12069e-12
1.89016e-11
1.2155e-12
1.75898e-11
1.31181e-12
1.61811e-11
1.40874e-12
1.46769e-11
1.50418e-12
1.30802e-11
1.59673e-12
1.13962e-11
1.68403e-12
9.63208e-12
1.76424e-12
7.79709e-12
1.83507e-12
5.90258e-12
1.89464e-12
3.96166e-12
1.94105e-12
1.98892e-12
1.97289e-12
1.98907e-12
3.12161e-11
3.679e-15
3.12106e-11
1.10932e-14
3.12013e-11
1.86769e-14
3.11882e-11
2.65457e-14
3.11709e-11
3.48192e-14
3.11492e-11
4.36228e-14
3.11229e-11
5.30892e-14
3.10914e-11
6.33605e-14
3.10544e-11
7.45896e-14
3.10112e-11
8.69424e-14
3.09613e-11
1.006e-13
3.09038e-11
1.1576e-13
3.0838e-11
1.32641e-13
3.07628e-11
1.5148e-13
3.06771e-11
1.72541e-13
3.05797e-11
1.96114e-13
3.04692e-11
2.22514e-13
3.0344e-11
2.5209e-13
3.02024e-11
2.85223e-13
3.00423e-11
3.22325e-13
2.98615e-11
3.63846e-13
2.96577e-11
4.1027e-13
2.9428e-11
4.62114e-13
2.91696e-11
5.19926e-13
2.88792e-11
5.84284e-13
2.85531e-11
6.55783e-13
2.81876e-11
7.35033e-13
2.77784e-11
8.22634e-13
2.7321e-11
9.19185e-13
2.68108e-11
1.02521e-12
2.62426e-11
1.14122e-12
2.56113e-11
1.26752e-12
2.49115e-11
1.40445e-12
2.4138e-11
1.55186e-12
2.32854e-11
1.70984e-12
2.23487e-11
1.87744e-12
2.13233e-11
2.0544e-12
2.02053e-11
2.23863e-12
1.89915e-11
2.4294e-12
1.768e-11
2.62327e-12
1.62702e-11
2.81872e-12
1.47631e-11
3.01129e-12
1.31616e-11
3.19829e-12
1.14709e-11
3.37482e-12
9.69809e-12
3.53722e-12
7.85253e-12
3.68073e-12
5.9458e-12
3.80153e-12
3.99128e-12
3.89571e-12
2.00398e-12
3.96034e-12
3.99321e-12
3.12265e-11
5.45067e-15
3.12211e-11
1.64354e-14
3.12121e-11
2.76714e-14
3.11993e-11
3.93301e-14
3.11826e-11
5.15892e-14
3.11616e-11
6.46345e-14
3.1136e-11
7.8663e-14
3.11054e-11
9.38855e-14
3.10695e-11
1.10529e-13
3.10276e-11
1.2884e-13
3.09791e-11
1.49088e-13
3.09233e-11
1.71567e-13
3.08593e-11
1.966e-13
3.07863e-11
2.24543e-13
3.0703e-11
2.55788e-13
3.06083e-11
2.90765e-13
3.05009e-11
3.29948e-13
3.03791e-11
3.73857e-13
3.02412e-11
4.23059e-13
3.00854e-11
4.78176e-13
2.99093e-11
5.39881e-13
2.97107e-11
6.08899e-13
2.94867e-11
6.86011e-13
2.92346e-11
7.72046e-13
2.8951e-11
8.67876e-13
2.86323e-11
9.74406e-13
2.82747e-11
1.09257e-12
2.7874e-11
1.22329e-12
2.74257e-11
1.36748e-12
2.69249e-11
1.52597e-12
2.63665e-11
1.69957e-12
2.57451e-11
1.88877e-12
2.50554e-11
2.09418e-12
2.42916e-11
2.31555e-12
2.34482e-11
2.5532e-12
2.25198e-11
2.80561e-12
2.15015e-11
3.07269e-12
2.03889e-11
3.35105e-12
1.91783e-11
3.63999e-12
1.78674e-11
3.93399e-12
1.6455e-11
4.23113e-12
1.49418e-11
4.52431e-12
1.33305e-11
4.80967e-12
1.16258e-11
5.07946e-12
9.83491e-12
5.32815e-12
7.96746e-12
5.54822e-12
6.03538e-12
5.73373e-12
4.05269e-12
5.87852e-12
2.03521e-12
5.97798e-12
6.02858e-12
3.12371e-11
7.14185e-15
3.1232e-11
2.15349e-14
3.12234e-11
3.62577e-14
3.12112e-11
5.15351e-14
3.11952e-11
6.76002e-14
3.11751e-11
8.46971e-14
3.11507e-11
1.03084e-13
3.11215e-11
1.23039e-13
3.10872e-11
1.44859e-13
3.10472e-11
1.68869e-13
3.10008e-11
1.95424e-13
3.09475e-11
2.24909e-13
3.08863e-11
2.57752e-13
3.08164e-11
2.94422e-13
3.07368e-11
3.35436e-13
3.06461e-11
3.81363e-13
3.05432e-11
4.32829e-13
3.04266e-11
4.90523e-13
3.02944e-11
5.55201e-13
3.01449e-11
6.27687e-13
2.99759e-11
7.08878e-13
2.9785e-11
7.99745e-13
2.95696e-11
9.01334e-13
2.93269e-11
1.01476e-12
2.90535e-11
1.1412e-12
2.8746e-11
1.28188e-12
2.84005e-11
1.43808e-12
2.80127e-11
1.61105e-12
2.7578e-11
1.8021e-12
2.70916e-11
2.01235e-12
2.65481e-11
2.24301e-12
2.59421e-11
2.49476e-12
2.52677e-11
2.7686e-12
2.45189e-11
3.06419e-12
2.36899e-11
3.38231e-12
2.27747e-11
3.72069e-12
2.17678e-11
4.0799e-12
2.06639e-11
4.45475e-12
1.94589e-11
4.8454e-12
1.81495e-11
5.24328e-12
1.67339e-11
5.64717e-12
1.52121e-11
6.04611e-12
1.35863e-11
6.43587e-12
1.18608e-11
6.80501e-12
1.0043e-11
7.14627e-12
8.14251e-12
7.44885e-12
6.172e-12
7.70447e-12
4.14643e-12
7.90427e-12
2.0829e-12
8.04171e-12
8.11168e-12
3.12478e-11
8.72728e-15
3.1243e-11
2.63157e-14
3.1235e-11
4.43076e-14
3.12235e-11
6.29786e-14
3.12085e-11
8.26137e-14
3.11897e-11
1.03512e-13
3.11668e-11
1.25991e-13
3.11394e-11
1.50389e-13
3.11072e-11
1.77073e-13
3.10696e-11
2.0644e-13
3.10261e-11
2.38926e-13
3.0976e-11
2.75007e-13
3.09185e-11
3.15208e-13
3.08529e-11
3.60106e-13
3.07779e-11
4.1034e-13
3.06927e-11
4.66612e-13
3.05958e-11
5.29698e-13
3.04859e-11
6.00451e-13
3.03612e-11
6.79811e-13
3.02201e-11
7.68803e-13
3.00604e-11
8.68548e-13
2.98799e-11
9.80263e-13
2.96759e-11
1.10526e-12
2.94457e-11
1.24495e-12
2.9186e-11
1.40082e-12
2.88934e-11
1.57445e-12
2.8564e-11
1.76746e-12
2.81935e-11
1.98151e-12
2.77773e-11
2.21828e-12
2.73103e-11
2.47928e-12
2.67871e-11
2.76616e-12
2.62018e-11
3.07985e-12
2.55485e-11
3.42192e-12
2.48205e-11
3.79189e-12
2.40115e-11
4.19132e-12
2.31148e-11
4.61702e-12
2.2124e-11
5.07076e-12
2.10331e-11
5.5451e-12
1.98366e-11
6.04181e-12
1.85306e-11
6.54869e-12
1.71119e-11
7.06576e-12
1.55797e-11
7.57781e-12
1.39352e-11
8.08027e-12
1.21824e-11
8.5575e-12
1.03283e-11
9.00033e-12
8.383e-12
9.39401e-12
6.36001e-12
9.72754e-12
4.27558e-12
9.98878e-12
2.14866e-12
1.01688e-11
1.02605e-11
3.1268e-11
1.01836e-14
3.12636e-11
3.07074e-14
3.12562e-11
5.17029e-14
3.12457e-11
7.34924e-14
3.12319e-11
9.64093e-14
3.12146e-11
1.20804e-13
3.11935e-11
1.47046e-13
3.11684e-11
1.75535e-13
3.11387e-11
2.06699e-13
3.11042e-11
2.41006e-13
3.10641e-11
2.78964e-13
3.1018e-11
3.21136e-13
3.09651e-11
3.68138e-13
3.09045e-11
4.20651e-13
3.08354e-11
4.79428e-13
3.07567e-11
5.453e-13
3.06672e-11
6.19186e-13
3.05655e-11
7.02099e-13
3.04502e-11
7.95155e-13
3.03194e-11
8.9958e-13
3.01712e-11
1.01671e-12
3.00034e-11
1.14802e-12
2.98136e-11
1.29508e-12
2.95989e-11
1.45961e-12
2.93562e-11
1.64342e-12
2.90822e-11
1.84845e-12
2.87729e-11
2.07672e-12
2.84241e-11
2.33027e-12
2.80311e-11
2.61128e-12
2.75886e-11
2.92165e-12
2.70912e-11
3.26363e-12
2.65326e-11
3.63839e-12
2.59063e-11
4.04834e-12
2.52053e-11
4.49275e-12
2.44224e-11
4.97457e-12
2.35501e-11
5.4891e-12
2.25808e-11
6.04072e-12
2.15076e-11
6.61801e-12
2.03233e-11
7.22722e-12
1.90229e-11
7.84894e-12
1.76012e-11
8.48869e-12
1.60565e-11
9.12259e-12
1.43889e-11
9.74887e-12
1.26014e-11
1.03452e-11
1.07011e-11
1.09014e-11
8.69795e-12
1.13974e-11
6.60672e-12
1.18192e-11
4.44529e-12
1.21505e-11
2.23516e-12
1.23793e-11
1.2496e-11
3.12878e-11
1.14889e-14
3.12839e-11
3.46436e-14
3.12772e-11
5.83317e-14
3.12678e-11
8.29175e-14
3.12554e-11
1.08778e-13
3.12399e-11
1.36311e-13
3.1221e-11
1.65934e-13
3.11985e-11
1.98099e-13
3.11719e-11
2.33293e-13
3.11408e-11
2.72046e-13
3.11049e-11
3.14937e-13
3.10634e-11
3.62604e-13
3.10158e-11
4.15751e-13
3.09612e-11
4.75154e-13
3.0899e-11
5.41673e-13
3.0828e-11
6.16261e-13
3.07472e-11
6.99972e-13
3.06553e-11
7.93971e-13
3.05509e-11
8.99546e-13
3.04324e-11
1.01812e-12
3.02978e-11
1.15124e-12
3.01452e-11
1.30062e-12
2.99722e-11
1.46811e-12
2.9776e-11
1.65573e-12
2.95538e-11
1.86564e-12
2.9302e-11
2.10014e-12
2.9017e-11
2.36169e-12
2.86944e-11
2.65277e-12
2.83296e-11
2.97608e-12
2.79171e-11
3.33399e-12
2.74513e-11
3.72944e-12
2.69255e-11
4.16394e-12
2.63329e-11
4.64096e-12
2.56656e-11
5.15948e-12
2.49159e-11
5.72438e-12
2.40749e-11
6.32914e-12
2.3134e-11
6.98161e-12
2.20848e-11
7.66591e-12
2.09182e-11
8.39358e-12
1.96276e-11
9.138e-12
1.82058e-11
9.9099e-12
1.6649e-11
1.0678e-11
1.49555e-11
1.14417e-11
1.31272e-11
1.21724e-11
1.11706e-11
1.28577e-11
9.09593e-12
1.34715e-11
6.91926e-12
1.39958e-11
4.66073e-12
1.44089e-11
2.34509e-12
1.4695e-11
1.48412e-11
3.1307e-11
1.26232e-14
3.13036e-11
3.80643e-14
3.12978e-11
6.40931e-14
3.12896e-11
9.11107e-14
3.12788e-11
1.19533e-13
3.12654e-11
1.49797e-13
3.12489e-11
1.82366e-13
3.12293e-11
2.17738e-13
3.12061e-11
2.5645e-13
3.11791e-11
2.99089e-13
3.11477e-11
3.46297e-13
3.11115e-11
3.98781e-13
3.10699e-11
4.57323e-13
3.10223e-11
5.22786e-13
3.09678e-11
5.9613e-13
3.09057e-11
6.78418e-13
3.08348e-11
7.7083e-13
3.07541e-11
8.74676e-13
3.06622e-11
9.91405e-13
3.05577e-11
1.12262e-12
3.04388e-11
1.27009e-12
3.03037e-11
1.43576e-12
3.015e-11
1.62176e-12
2.99753e-11
1.8304e-12
2.97767e-11
2.0642e-12
2.9551e-11
2.32586e-12
2.92944e-11
2.61828e-12
2.90026e-11
2.94442e-12
2.86712e-11
3.30759e-12
2.82944e-11
3.71067e-12
2.78665e-11
4.15749e-12
2.73804e-11
4.64986e-12
2.6829e-11
5.19278e-12
2.62035e-11
5.78463e-12
2.54955e-11
6.43352e-12
2.46944e-11
7.12944e-12
2.37906e-11
7.88758e-12
2.27735e-11
8.68201e-12
2.16313e-11
9.5391e-12
2.03564e-11
1.04122e-11
1.89365e-11
1.13333e-11
1.73675e-11
1.22472e-11
1.56457e-11
1.31664e-11
1.37703e-11
1.40484e-11
1.17476e-11
1.48822e-11
9.58702e-12
1.56328e-11
7.30637e-12
1.62775e-11
4.92826e-12
1.67877e-11
2.48185e-12
1.71421e-11
1.73236e-11
3.13348e-11
1.35694e-14
3.13319e-11
4.09181e-14
3.13271e-11
6.89001e-14
3.13202e-11
9.79481e-14
3.13113e-11
1.28511e-13
3.13e-11
1.61059e-13
3.12863e-11
1.96094e-13
3.12699e-11
2.34153e-13
3.12505e-11
2.75818e-13
3.12279e-11
3.21723e-13
3.12016e-11
3.72567e-13
3.11712e-11
4.29115e-13
3.11363e-11
4.92219e-13
3.10963e-11
5.62819e-13
3.10505e-11
6.41963e-13
3.09981e-11
7.30814e-13
3.09382e-11
8.30668e-13
3.08699e-11
9.42966e-13
3.0792e-11
1.06931e-12
3.07031e-11
1.21147e-12
3.06018e-11
1.37142e-12
3.04862e-11
1.55134e-12
3.03543e-11
1.75361e-12
3.02038e-11
1.98087e-12
3.0032e-11
2.23599e-12
2.98357e-11
2.52205e-12
2.96115e-11
2.84246e-12
2.93552e-11
3.20067e-12
2.90621e-11
3.60067e-12
2.87266e-11
4.0459e-12
2.83429e-11
4.54122e-12
2.79033e-11
5.08885e-12
2.74007e-11
5.69557e-12
2.68249e-11
6.35925e-12
2.61671e-11
7.09161e-12
2.54151e-11
7.87945e-12
2.45573e-11
8.74532e-12
2.35818e-11
9.65474e-12
2.24733e-11
1.06465e-11
2.12224e-11
1.16598e-11
1.98137e-11
1.27397e-11
1.82377e-11
1.38197e-11
1.64875e-11
1.49144e-11
1.456e-11
1.59732e-11
1.24597e-11
1.69811e-11
1.01959e-11
1.7895e-11
7.78799e-12
1.86848e-11
5.26204e-12
1.9313e-11
2.65274e-12
1.97513e-11
1.99762e-11
3.13612e-11
1.43127e-14
3.13589e-11
4.31603e-14
3.13552e-11
7.26778e-14
3.13498e-11
1.03323e-13
3.13427e-11
1.35571e-13
3.13339e-11
1.6992e-13
3.1323e-11
2.06902e-13
3.13101e-11
2.47086e-13
3.12948e-11
2.9109e-13
3.1277e-11
3.39591e-13
3.12562e-11
3.93328e-13
3.12322e-11
4.53122e-13
3.12045e-11
5.19878e-13
3.11727e-11
5.94606e-13
3.11363e-11
6.78427e-13
3.10945e-11
7.72594e-13
3.10466e-11
8.78502e-13
3.09919e-11
9.97709e-13
3.09292e-11
1.13195e-12
3.08575e-11
1.28317e-12
3.07754e-11
1.45351e-12
3.06814e-11
1.64538e-12
3.05735e-11
1.86141e-12
3.04499e-11
2.10454e-12
3.03079e-11
2.37799e-12
3.01446e-11
2.68526e-12
2.99568e-11
3.03024e-12
2.97405e-11
3.41695e-12
2.94912e-11
3.85008e-12
2.92032e-11
4.33373e-12
2.88709e-11
4.87394e-12
2.8486e-11
5.47332e-12
2.80416e-11
6.14113e-12
2.75258e-11
6.87398e-12
2.69304e-11
7.68984e-12
2.62395e-11
8.56821e-12
2.54419e-11
9.54862e-12
2.45212e-11
1.05721e-11
2.34576e-11
1.17192e-11
2.22434e-11
1.28709e-11
2.08475e-11
1.41456e-11
1.92651e-11
1.54023e-11
1.74874e-11
1.66993e-11
1.55031e-11
1.79592e-11
1.33167e-11
1.91719e-11
1.09332e-11
2.02803e-11
8.37465e-12
2.12458e-11
5.67029e-12
2.20188e-11
2.86234e-12
2.25607e-11
2.28399e-11
3.13858e-11
1.48414e-14
3.13842e-11
4.47554e-14
3.13816e-11
7.5366e-14
3.13777e-11
1.0715e-13
3.13727e-11
1.406e-13
3.13664e-11
1.76238e-13
3.13587e-11
2.14616e-13
3.13494e-11
2.56328e-13
3.13385e-11
3.02021e-13
3.13257e-11
3.524e-13
3.13108e-11
4.08241e-13
3.12935e-11
4.70404e-13
3.12735e-11
5.3984e-13
3.12505e-11
6.17612e-13
3.1224e-11
7.04903e-13
3.11936e-11
8.03038e-13
3.11586e-11
9.13497e-13
3.11183e-11
1.03794e-12
3.10721e-11
1.17822e-12
3.10188e-11
1.33641e-12
3.09574e-11
1.51485e-12
3.08867e-11
1.7161e-12
3.0805e-11
1.94308e-12
3.07105e-11
2.19898e-12
3.06011e-11
2.48739e-12
3.04741e-11
2.81219e-12
3.03266e-11
3.17779e-12
3.01546e-11
3.58876e-12
2.99541e-11
4.05058e-12
2.97194e-11
4.56802e-12
2.94451e-11
5.14841e-12
2.91224e-11
5.795e-12
2.87445e-11
6.51942e-12
2.82985e-11
7.31793e-12
2.7775e-11
8.21378e-12
2.71575e-11
9.18218e-12
2.64308e-11
1.02749e-11
2.55792e-11
1.14188e-11
2.45762e-11
1.27188e-11
2.34129e-11
1.40287e-11
2.20583e-11
1.54929e-11
2.04897e-11
1.69633e-11
1.8692e-11
1.84906e-11
1.66512e-11
1.99938e-11
1.43664e-11
2.14526e-11
1.18425e-11
2.28004e-11
9.10167e-12
2.39845e-11
6.17833e-12
2.49405e-11
3.12378e-12
2.56145e-11
2.5963e-11
3.14179e-11
1.51471e-14
3.1417e-11
4.56777e-14
3.14155e-11
7.69215e-14
3.14132e-11
1.09366e-13
3.14103e-11
1.43518e-13
3.14067e-11
1.7991e-13
3.14022e-11
2.1911e-13
3.13968e-11
2.61728e-13
3.13904e-11
3.08427e-13
3.13828e-11
3.59935e-13
3.1374e-11
4.17051e-13
3.13637e-11
4.80663e-13
3.13518e-11
5.51755e-13
3.1338e-11
6.31428e-13
3.1322e-11
7.20913e-13
3.13034e-11
8.21587e-13
3.12819e-11
9.34999e-13
3.1257e-11
1.06289e-12
3.1228e-11
1.2072e-12
3.11943e-11
1.37014e-12
3.11549e-11
1.55416e-12
3.1109e-11
1.76203e-12
3.10552e-11
1.99686e-12
3.09921e-11
2.26212e-12
3.09177e-11
2.56169e-12
3.083e-11
2.89988e-12
3.07263e-11
3.28157e-12
3.0603e-11
3.71191e-12
3.04567e-11
4.19713e-12
3.02816e-11
4.74282e-12
3.00733e-11
5.35761e-12
2.98218e-11
6.0455e-12
2.95227e-11
6.82102e-12
2.91587e-11
7.67941e-12
2.87262e-11
8.65244e-12
2.81978e-11
9.70481e-12
2.75681e-11
1.0918e-11
2.68064e-11
1.217e-11
2.58827e-11
1.36654e-11
2.48041e-11
1.50957e-11
2.34762e-11
1.68466e-11
2.19111e-11
1.85294e-11
2.01032e-11
2.0315e-11
1.80064e-11
2.20951e-11
1.56224e-11
2.38458e-11
1.29406e-11
2.54867e-11
9.98768e-12
2.69425e-11
6.80135e-12
2.813e-11
3.44578e-12
2.89731e-11
2.94113e-11
3.14474e-11
1.52242e-14
3.14472e-11
4.59111e-14
3.14468e-11
7.7317e-14
3.14462e-11
1.09934e-13
3.14455e-11
1.44273e-13
3.14445e-11
1.80871e-13
3.14433e-11
2.20302e-13
3.14419e-11
2.63184e-13
3.14401e-11
3.10189e-13
3.1438e-11
3.62053e-13
3.14355e-11
4.19588e-13
3.14324e-11
4.83696e-13
3.14288e-11
5.55382e-13
3.14245e-11
6.35768e-13
3.14193e-11
7.26114e-13
3.1413e-11
8.27835e-13
3.14055e-11
9.42522e-13
3.13964e-11
1.07197e-12
3.13854e-11
1.2182e-12
3.1372e-11
1.3835e-12
3.13557e-11
1.57045e-12
3.13358e-11
1.78195e-12
3.13114e-11
2.02128e-12
3.12813e-11
2.29215e-12
3.12443e-11
2.59873e-12
3.11984e-11
2.94569e-12
3.11416e-11
3.33835e-12
3.10709e-11
3.78245e-12
3.09832e-11
4.28493e-12
3.08731e-11
4.8523e-12
3.07367e-11
5.49434e-12
3.05643e-11
6.21638e-12
3.03512e-11
7.03498e-12
3.00805e-11
7.94677e-12
2.97458e-11
8.98823e-12
2.93227e-11
1.01223e-11
2.8795e-11
1.14449e-11
2.81422e-11
1.28159e-11
2.73158e-11
1.44832e-11
2.63282e-11
1.60775e-11
2.51197e-11
1.80346e-11
2.36257e-11
2.00065e-11
2.18238e-11
2.21012e-11
1.96806e-11
2.42254e-11
1.71808e-11
2.63359e-11
1.43159e-11
2.83432e-11
1.11043e-11
3.01488e-11
7.59118e-12
3.16395e-11
3.85527e-12
3.27071e-11
3.32654e-11
3.14739e-11
1.5071e-14
3.14743e-11
4.54498e-14
3.14751e-11
7.65426e-14
3.14762e-11
1.08838e-13
3.14776e-11
1.42844e-13
3.14794e-11
1.79095e-13
3.14816e-11
2.18161e-13
3.14841e-11
2.60659e-13
3.1487e-11
3.07257e-13
3.14904e-11
3.58691e-13
3.14942e-11
4.15775e-13
3.14985e-11
4.7941e-13
3.15033e-11
5.50604e-13
3.15085e-11
6.30488e-13
3.15143e-11
7.20329e-13
3.15206e-11
8.21558e-13
3.15273e-11
9.35787e-13
3.15345e-11
1.06484e-12
3.15419e-11
1.21079e-12
3.15494e-11
1.37596e-12
3.15568e-11
1.56303e-12
3.15638e-11
1.77498e-12
3.15698e-11
2.01525e-12
3.15743e-11
2.28771e-12
3.15762e-11
2.59678e-12
3.15744e-11
2.94742e-12
3.15675e-11
3.34537e-12
3.15529e-11
3.79691e-12
3.15287e-11
4.30959e-12
3.14895e-11
4.89094e-12
3.14336e-11
5.55159e-12
3.13495e-11
6.2988e-12
3.12384e-11
7.15021e-12
3.10743e-11
8.10579e-12
3.08694e-11
9.20446e-12
3.05681e-11
1.04105e-11
3.02014e-11
1.18387e-11
2.96825e-11
1.33067e-11
2.89981e-11
1.5221e-11
2.82307e-11
1.68056e-11
2.7032e-11
1.9295e-11
2.55188e-11
2.15285e-11
2.3775e-11
2.38763e-11
2.16138e-11
2.63987e-11
1.90286e-11
2.89376e-11
1.59705e-11
3.14122e-11
1.24661e-11
3.36631e-11
8.56372e-12
3.55483e-11
4.36289e-12
3.69132e-11
3.76326e-11
3.15064e-11
1.46891e-14
3.15076e-11
4.42987e-14
3.15095e-11
7.46063e-14
3.15123e-11
1.0609e-13
3.15159e-11
1.39246e-13
3.15204e-11
1.74598e-13
3.15258e-11
2.12705e-13
3.15323e-11
2.5417e-13
3.15399e-11
2.99652e-13
3.15488e-11
3.49872e-13
3.15589e-11
4.05631e-13
3.15705e-11
4.67819e-13
3.15837e-11
5.37431e-13
3.15986e-11
6.15585e-13
3.16154e-11
7.03539e-13
3.16342e-11
8.02716e-13
3.16553e-11
9.14725e-13
3.16787e-11
1.04139e-12
3.17047e-11
1.18479e-12
3.17334e-11
1.34728e-12
3.17649e-11
1.53154e-12
3.17992e-11
1.74065e-12
3.18364e-11
1.97811e-12
3.18761e-11
2.24791e-12
3.19183e-11
2.55464e-12
3.19621e-11
2.90351e-12
3.2007e-11
3.30055e-12
3.20511e-11
3.75255e-12
3.20934e-11
4.26755e-12
3.21294e-11
4.85413e-12
3.21582e-11
5.52347e-12
3.21697e-11
6.28528e-12
3.21641e-11
7.15733e-12
3.21203e-11
8.14508e-12
3.20407e-11
9.28656e-12
3.18873e-11
1.05557e-11
3.16543e-11
1.20725e-11
3.13034e-11
1.3648e-11
3.07297e-11
1.57803e-11
3.00708e-11
1.74702e-11
2.92272e-11
1.11547e-11
8.93415e-12
2.79595e-11
1.02179e-11
1.25356e-11
2.62548e-11
1.16269e-11
1.39216e-11
2.40793e-11
1.31728e-11
1.53743e-11
2.13765e-11
1.4782e-11
1.68359e-11
1.81005e-11
1.64083e-11
1.82571e-11
1.4238e-11
1.79738e-11
1.95346e-11
9.83972e-12
1.93711e-11
2.05624e-11
5.03185e-12
2.04811e-11
2.12305e-11
2.12001e-11
2.14562e-11
3.15341e-11
1.40835e-14
3.15359e-11
4.24731e-14
3.1539e-11
7.15339e-14
3.15434e-11
1.01726e-13
3.15491e-11
1.33526e-13
3.15562e-11
1.67439e-13
3.15649e-11
2.04004e-13
3.15753e-11
2.43801e-13
3.15875e-11
2.87468e-13
3.16017e-11
3.35701e-13
3.1618e-11
3.89275e-13
3.16368e-11
4.49053e-13
3.16582e-11
5.16002e-13
3.16826e-11
5.9121e-13
3.17102e-11
6.75903e-13
3.17415e-11
7.71472e-13
3.17767e-11
8.79495e-13
3.18164e-11
1.00177e-12
3.18608e-11
1.14033e-12
3.19106e-11
1.29753e-12
3.19661e-11
1.47604e-12
3.20278e-11
1.67892e-12
3.20962e-11
1.90969e-12
3.21717e-11
2.1724e-12
3.22547e-11
2.47172e-12
3.23452e-11
2.81302e-12
3.24433e-11
3.2025e-12
3.25483e-11
3.64738e-12
3.26605e-11
4.15593e-12
3.2776e-11
4.73788e-12
3.28969e-11
5.40425e-12
3.30115e-11
6.16833e-12
3.31298e-11
7.04444e-12
3.32161e-11
8.05137e-12
3.3312e-11
9.20611e-12
3.33081e-11
1.05381e-11
3.33639e-11
1.20594e-11
3.31209e-11
1.38308e-11
3.31997e-11
1.5816e-11
1.66833e-11
1.82106e-11
1.56133e-11
-9.16976e-12
9.659e-12
1.64648e-11
-1.53709e-11
1.507e-11
1.05181e-11
-1.49022e-11
1.45296e-11
1.20344e-11
-1.41766e-11
1.36967e-11
1.37002e-11
-1.31728e-11
1.25389e-11
1.54646e-11
-1.18307e-11
1.10151e-11
1.72672e-11
-1.01109e-11
9.11312e-12
1.90027e-11
-8.02215e-12
6.8457e-12
2.05673e-11
-5.58599e-12
4.2575e-12
2.18212e-11
-2.8709e-12
1.4459e-12
2.26317e-11
3.15612e-11
1.3263e-14
3.15637e-11
3.9999e-14
3.15678e-11
6.73689e-14
3.15738e-11
9.58068e-14
3.15815e-11
1.25764e-13
3.15912e-11
1.57718e-13
3.16031e-11
1.92178e-13
3.16172e-11
2.29694e-13
3.16338e-11
2.7087e-13
3.16531e-11
3.16367e-13
3.16755e-11
3.66922e-13
3.17012e-11
4.23356e-13
3.17306e-11
4.86591e-13
3.17641e-11
5.57665e-13
3.18023e-11
6.37753e-13
3.18456e-11
7.28188e-13
3.18946e-11
8.30488e-13
3.195e-11
9.46384e-13
3.20125e-11
1.07786e-12
3.20828e-11
1.22718e-12
3.21619e-11
1.39696e-12
3.22507e-11
1.5902e-12
3.235e-11
1.81036e-12
3.24609e-11
2.06147e-12
3.25845e-11
2.34817e-12
3.27216e-11
2.67588e-12
3.28733e-11
3.05085e-12
3.30399e-11
3.48054e-12
3.32228e-11
3.97333e-12
3.34201e-11
4.5398e-12
3.36344e-11
5.19081e-12
3.38581e-11
5.94241e-12
3.40982e-11
6.80671e-12
3.43321e-11
7.81197e-12
3.45813e-11
8.96256e-12
3.47841e-11
1.03229e-11
3.50124e-11
1.18441e-11
3.50853e-11
1.37296e-11
3.52871e-11
1.565e-11
1.8224e-11
1.84484e-11
1.67525e-11
-9.73618e-12
1.00011e-11
1.81001e-11
-1.67149e-11
1.65017e-11
-1.10828e-11
1.12492e-11
-1.63966e-11
1.6103e-11
-1.26933e-11
1.29748e-11
-1.58089e-11
1.53841e-11
-1.44737e-11
1.49039e-11
-1.4896e-11
1.42826e-11
-1.63769e-11
1.70064e-11
-1.35801e-11
1.27156e-11
-1.83261e-11
1.92131e-11
-1.17378e-11
1.06502e-11
-2.02482e-11
2.13456e-11
-9.43351e-12
8.09729e-12
-2.19844e-11
2.33212e-11
-6.64169e-12
5.08268e-12
-2.33665e-11
2.49237e-11
-3.43868e-12
1.73481e-12
-2.42319e-11
2.59364e-11
3.15874e-11
1.22393e-14
3.15904e-11
3.69123e-14
3.15956e-11
6.21717e-14
3.1603e-11
8.84193e-14
3.16127e-11
1.16073e-13
3.16249e-11
1.45575e-13
3.16396e-11
1.77397e-13
3.16573e-11
2.12051e-13
3.16781e-11
2.50094e-13
3.17023e-11
2.92145e-13
3.17303e-11
3.38886e-13
3.17626e-11
3.91085e-13
3.17996e-11
4.496e-13
3.18419e-11
5.15403e-13
3.189e-11
5.89595e-13
3.19448e-11
6.73427e-13
3.2007e-11
7.68328e-13
3.20774e-11
8.75931e-13
3.21572e-11
9.98111e-13
3.22474e-11
1.13703e-12
3.23492e-11
1.29516e-12
3.2464e-11
1.4754e-12
3.25933e-11
1.68107e-12
3.27387e-11
1.91606e-12
3.2902e-11
2.18489e-12
3.3085e-11
2.49289e-12
3.32898e-11
2.8462e-12
3.35179e-11
3.25233e-12
3.37721e-11
3.71958e-12
3.40523e-11
4.25898e-12
3.43634e-11
4.88121e-12
3.46997e-11
5.60403e-12
3.50723e-11
6.43859e-12
3.54596e-11
7.41843e-12
3.58899e-11
8.54424e-12
3.63026e-11
9.89365e-12
3.67632e-11
1.14123e-11
3.71387e-11
1.33154e-11
3.75203e-11
1.53273e-11
1.96879e-11
1.81207e-11
1.80876e-11
-1.00064e-11
1.00619e-11
1.97004e-11
-1.82479e-11
1.81472e-11
-1.15771e-11
1.16643e-11
-1.8133e-11
1.79506e-11
-1.34015e-11
1.36005e-11
-1.77454e-11
1.7424e-11
-1.54703e-11
1.5827e-11
-1.70083e-11
1.64714e-11
-1.77542e-11
1.83468e-11
-1.58481e-11
1.48894e-11
-2.01074e-11
2.11491e-11
-1.3793e-11
1.26434e-11
-2.25677e-11
2.37553e-11
-1.12975e-11
9.78332e-12
-2.48378e-11
2.63652e-11
-8.08335e-12
6.22367e-12
-2.66831e-11
2.85469e-11
-4.22918e-12
2.13951e-12
-2.78422e-11
2.99343e-11
3.16112e-11
1.10277e-14
3.16149e-11
3.32588e-14
3.1621e-11
5.60195e-14
3.16298e-11
7.96728e-14
3.16412e-11
1.04596e-13
3.16556e-11
1.3119e-13
3.16731e-11
1.5988e-13
3.16941e-11
1.9113e-13
3.17187e-11
2.25446e-13
3.17475e-11
2.63387e-13
3.17808e-11
3.05575e-13
3.18192e-11
3.52705e-13
3.18632e-11
4.05561e-13
3.19136e-11
4.65029e-13
3.19711e-11
5.32113e-13
3.20366e-11
6.07959e-13
3.2111e-11
6.93877e-13
3.21956e-11
7.9137e-13
3.22916e-11
9.02167e-13
3.24003e-11
1.02826e-12
3.25236e-11
1.17197e-12
3.2663e-11
1.33596e-12
3.28207e-11
1.52336e-12
3.2999e-11
1.73784e-12
3.32003e-11
1.98365e-12
3.34272e-11
2.26588e-12
3.36831e-11
2.59042e-12
3.39708e-11
2.96452e-12
3.42944e-11
3.39625e-12
3.46562e-11
3.89657e-12
3.50623e-11
4.4759e-12
3.5512e-11
5.1526e-12
3.60155e-11
5.93738e-12
3.65633e-11
6.86616e-12
3.7174e-11
7.93885e-12
3.78189e-11
9.23903e-12
3.85286e-11
1.07141e-11
3.92411e-11
1.25831e-11
3.99805e-11
1.46119e-11
2.11512e-11
1.73825e-11
1.95306e-11
-9.95851e-12
9.82447e-12
2.13135e-11
-1.99434e-11
1.99838e-11
-1.17795e-11
1.17369e-11
-2.0103e-11
2.00759e-11
-1.38141e-11
1.38661e-11
-2.0004e-11
1.98609e-11
-1.62023e-11
1.63901e-11
-1.95345e-11
1.92775e-11
-1.90135e-11
1.93488e-11
-9.63918e-12
-1.15703e-11
9.20869e-12
1.16655e-11
-8.33575e-12
-1.34209e-11
7.97402e-12
1.35726e-11
-6.78922e-12
-1.49863e-11
6.31052e-12
1.53192e-11
-4.70772e-12
-1.62477e-11
4.09628e-12
1.67654e-11
-2.12738e-12
1.76278e-11
-1.6964e-11
1.42525e-12
3.16324e-11
9.6465e-15
3.16365e-11
2.90934e-14
3.16435e-11
4.90046e-14
3.16535e-11
6.96982e-14
3.16666e-11
9.15057e-14
3.1683e-11
1.14777e-13
3.1703e-11
1.39888e-13
3.17269e-11
1.67245e-13
3.17551e-11
1.97292e-13
3.17879e-11
2.30523e-13
3.1826e-11
2.67483e-13
3.18699e-11
3.08788e-13
3.19204e-11
3.55128e-13
3.19781e-11
4.07286e-13
3.20441e-11
4.66152e-13
3.21193e-11
5.32743e-13
3.2205e-11
6.08223e-13
3.23025e-11
6.9393e-13
3.24132e-11
7.91408e-13
3.25391e-11
9.02443e-13
3.26819e-11
1.02911e-12
3.28441e-11
1.17382e-12
3.30281e-11
1.33941e-12
3.32367e-11
1.5292e-12
3.34734e-11
1.74709e-12
3.37415e-11
1.99774e-12
3.40455e-11
2.28659e-12
3.43895e-11
2.62042e-12
3.47794e-11
3.00676e-12
3.52195e-11
3.45603e-12
3.57182e-11
3.97823e-12
3.62786e-11
4.59095e-12
3.69134e-11
5.30537e-12
3.76204e-11
6.15544e-12
3.84201e-11
7.14611e-12
3.92982e-11
8.35176e-12
4.02812e-11
9.74572e-12
4.13436e-11
1.15023e-11
4.24822e-11
1.34979e-11
2.26424e-11
1.61292e-11
2.10644e-11
-9.57646e-12
9.25772e-12
2.29743e-11
-2.17728e-11
2.19869e-11
-1.1645e-11
1.1428e-11
-2.22873e-11
2.24548e-11
-1.3852e-11
1.37041e-11
-2.2597e-11
2.26434e-11
-1.65031e-11
1.64884e-11
-2.25745e-11
2.23802e-11
-1.96164e-11
1.98522e-11
-1.16557e-11
-1.21684e-11
1.12258e-11
1.23139e-11
-1.03644e-11
-1.44373e-11
9.98735e-12
1.47124e-11
-8.68975e-12
-1.67304e-11
8.1539e-12
1.72215e-11
-6.20853e-12
-1.87493e-11
5.44649e-12
1.94867e-11
-2.86484e-12
2.09547e-11
-2.00284e-11
1.92878e-12
3.16515e-11
8.11652e-15
3.16561e-11
2.44793e-14
3.16639e-11
4.12334e-14
3.16749e-11
5.86471e-14
3.16894e-11
7.69998e-14
3.17076e-11
9.65871e-14
3.17298e-11
1.17725e-13
3.17563e-11
1.40758e-13
3.17875e-11
1.66062e-13
3.1824e-11
1.94052e-13
3.18663e-11
2.25192e-13
3.19151e-11
2.60001e-13
3.19711e-11
2.99067e-13
3.20354e-11
3.43054e-13
3.21088e-11
3.92718e-13
3.21927e-11
4.48925e-13
3.22882e-11
5.12668e-13
3.23971e-11
5.85091e-13
3.2521e-11
6.67516e-13
3.2662e-11
7.61477e-13
3.28224e-11
8.68757e-13
3.30048e-11
9.91446e-13
3.32122e-11
1.13199e-12
3.34482e-11
1.29328e-12
3.37166e-11
1.47872e-12
3.4022e-11
1.6924e-12
3.43695e-11
1.93913e-12
3.4765e-11
2.22491e-12
3.52155e-11
2.55649e-12
3.5728e-11
2.94322e-12
3.63126e-11
3.39428e-12
3.6977e-11
3.92559e-12
3.77358e-11
4.54811e-12
3.85962e-11
5.29247e-12
3.95793e-11
6.16654e-12
4.06899e-11
7.23572e-12
4.19534e-11
8.48906e-12
4.33744e-11
1.00715e-11
4.49629e-11
1.19208e-11
2.41089e-11
1.4336e-11
2.26311e-11
-8.83944e-12
8.3325e-12
2.46237e-11
-2.36802e-11
2.41046e-11
-1.11195e-11
1.06883e-11
-2.46329e-11
2.50566e-11
-1.34395e-11
1.30277e-11
-2.54866e-11
2.58349e-11
-1.63302e-11
1.60006e-11
-2.61149e-11
2.62632e-11
-1.99141e-11
1.97852e-11
-1.39571e-11
-1.26535e-11
1.3625e-11
1.27186e-11
-1.30267e-11
-1.55603e-11
1.27075e-11
1.58088e-11
-1.14744e-11
-1.88408e-11
1.09028e-11
1.93976e-11
-8.59568e-12
-2.20493e-11
7.62164e-12
2.30216e-11
-4.11459e-12
2.56094e-11
-2.42803e-11
2.78499e-12
3.16673e-11
6.46112e-15
3.16723e-11
1.94868e-14
3.16807e-11
3.28244e-14
3.16926e-11
4.66879e-14
3.17083e-11
6.13001e-14
3.1728e-11
7.68968e-14
3.1752e-11
9.37306e-14
3.17807e-11
1.12076e-13
3.18146e-11
1.32232e-13
3.18541e-11
1.54533e-13
3.18999e-11
1.79349e-13
3.19528e-11
2.07096e-13
3.20137e-11
2.38244e-13
3.20834e-11
2.73325e-13
3.21632e-11
3.12949e-13
3.22543e-11
3.57809e-13
3.23583e-11
4.08706e-13
3.24768e-11
4.66562e-13
3.26119e-11
5.32444e-13
3.27658e-11
6.07594e-13
3.29412e-11
6.9346e-13
3.31409e-11
7.91737e-13
3.33685e-11
9.04422e-13
3.36279e-11
1.03388e-12
3.39238e-11
1.1829e-12
3.42614e-11
1.35486e-12
3.46469e-11
1.55374e-12
3.50873e-11
1.78452e-12
3.55912e-11
2.05288e-12
3.61676e-11
2.36663e-12
3.68289e-11
2.73368e-12
3.75864e-11
3.16738e-12
3.84583e-11
3.67789e-12
3.94585e-11
4.29041e-12
4.06133e-11
5.01532e-12
4.19407e-11
5.90429e-12
4.3475e-11
6.96153e-12
4.52444e-11
8.29486e-12
4.72806e-11
9.89428e-12
2.54748e-11
1.19689e-11
2.41611e-11
-7.7287e-12
7.03128e-12
2.6179e-11
-2.55791e-11
2.62449e-11
-1.0142e-11
9.46672e-12
-2.70391e-11
2.7779e-11
-1.2464e-11
1.17307e-11
-2.85704e-11
2.93343e-11
-1.54715e-11
1.47186e-11
-3.00902e-11
3.07821e-11
-1.93988e-11
1.8716e-11
-1.67162e-11
-1.26668e-11
1.65711e-11
1.25578e-11
-1.65547e-11
-1.63399e-11
1.64176e-11
1.64103e-11
-1.56876e-11
-2.09902e-11
1.52542e-11
2.13985e-11
-1.25911e-11
-2.62918e-11
1.13907e-11
2.75074e-11
-6.4833e-12
3.25801e-11
-3.05321e-11
4.43844e-12
3.16795e-11
4.70581e-15
3.16848e-11
1.41928e-14
3.16938e-11
2.39073e-14
3.17064e-11
3.40053e-14
3.17231e-11
4.46493e-14
3.1744e-11
5.60112e-14
3.17694e-11
6.82755e-14
3.17999e-11
8.16422e-14
3.18358e-11
9.63309e-14
3.18778e-11
1.12584e-13
3.19264e-11
1.30674e-13
3.19826e-11
1.50903e-13
3.20473e-11
1.73616e-13
3.21214e-11
1.99204e-13
3.22063e-11
2.28113e-13
3.23032e-11
2.60851e-13
3.2414e-11
2.98008e-13
3.25403e-11
3.4026e-13
3.26844e-11
3.88395e-13
3.28486e-11
4.43328e-13
3.3036e-11
5.06128e-13
3.32497e-11
5.78051e-13
3.34936e-11
6.60578e-13
3.37721e-11
7.55466e-13
3.40903e-11
8.64798e-13
3.44541e-11
9.91099e-13
3.48706e-11
1.13735e-12
3.53478e-11
1.30731e-12
3.58957e-11
1.50527e-12
3.6525e-11
1.73716e-12
3.72501e-11
2.0091e-12
3.80859e-11
2.3312e-12
3.90532e-11
2.71168e-12
4.01728e-11
3.16954e-12
4.14759e-11
3.71446e-12
4.29929e-11
4.38481e-12
4.47687e-11
5.18955e-12
4.68526e-11
6.20715e-12
4.93057e-11
7.44655e-12
2.66426e-11
9.05801e-12
2.55662e-11
-6.24275e-12
5.36712e-12
2.75244e-11
-2.73512e-11
2.82712e-11
-8.66607e-12
7.73631e-12
-2.93489e-11
3.04417e-11
-1.08229e-11
9.7336e-12
-3.16475e-11
3.2913e-11
-1.37203e-11
1.24615e-11
-3.42665e-11
3.56811e-11
-1.76881e-11
1.62788e-11
-1.98205e-11
-1.1818e-11
1.99823e-11
1.14294e-11
-2.09901e-11
-1.61268e-11
2.1244e-11
1.58117e-11
-2.17777e-11
-2.25154e-11
2.25208e-11
1.1727e-11