/*--------------------------------*- C++ -*----------------------------------*\
| =========                 |                                                 |
| \\      /  F ield         | foam-extend: Open Source CFD                    |
|  \\    /   O peration     | Version:     4.0                                |
|   \\  /    A nd           | Web:         http://www.foam-extend.org         |
|    \\/     M anipulation  |                                                 |
\*---------------------------------------------------------------------------*/
FoamFile
{
    version     2.0;
    format      ascii;
    class       volVectorField;
    location    "0.0002";
    object      U;
}
// * * * * * * * * * * * * * * * * * * * * * * * * * * * * * * * * * * * * * //

dimensions      [0 1 -1 0 0 0 0];

internalField   nonuniform List<vector> 
28770
(
(0.00106269 3.10018e-08 0)
(0.00106256 9.34789e-08 0)
(0.00106231 1.57383e-07 0)
(0.00106192 2.23687e-07 0)
(0.0010614 2.93398e-07 0)
(0.00106073 3.67572e-07 0)
(0.0010599 4.47325e-07 0)
(0.00105891 5.33853e-07 0)
(0.00105773 6.2844e-07 0)
(0.00105635 7.32483e-07 0)
(0.00105475 8.47502e-07 0)
(0.0010529 9.75161e-07 0)
(0.00105078 1.11728e-06 0)
(0.00104835 1.27588e-06 0)
(0.00104558 1.45314e-06 0)
(0.00104243 1.6515e-06 0)
(0.00103886 1.87361e-06 0)
(0.00103481 2.12238e-06 0)
(0.00103022 2.40098e-06 0)
(0.00102503 2.71287e-06 0)
(0.00101917 3.06179e-06 0)
(0.00101256 3.45176e-06 0)
(0.00100511 3.88707e-06 0)
(0.000996729 4.37228e-06 0)
(0.000987304 4.91213e-06 0)
(0.000976719 5.51154e-06 0)
(0.00096485 6.17551e-06 0)
(0.000951558 6.90895e-06 0)
(0.000936697 7.71667e-06 0)
(0.00092011 8.6029e-06 0)
(0.000901631 9.57168e-06 0)
(0.00088109 1.06254e-05 0)
(0.000858307 1.17664e-05 0)
(0.000833107 1.29935e-05 0)
(0.000805308 1.43067e-05 0)
(0.000774743 1.56983e-05 0)
(0.000741248 1.7165e-05 0)
(0.000704687 1.86903e-05 0)
(0.000664942 2.02662e-05 0)
(0.000621935 2.18661e-05 0)
(0.000575626 2.34753e-05 0)
(0.000526027 2.50587e-05 0)
(0.000473215 2.65931e-05 0)
(0.000417322 2.80396e-05 0)
(0.000358564 2.9368e-05 0)
(0.000297215 3.05405e-05 0)
(0.000233633 3.1526e-05 0)
(0.000168232 3.22937e-05 0)
(0.000101489 3.28202e-05 0)
(3.39221e-05 3.30878e-05 0)
(0.00106281 9.25454e-08 0)
(0.00106269 2.7905e-07 0)
(0.00106244 4.69815e-07 0)
(0.00106206 6.67747e-07 0)
(0.00106154 8.75856e-07 0)
(0.00106088 1.09729e-06 0)
(0.00106006 1.33539e-06 0)
(0.00105908 1.59372e-06 0)
(0.00105792 1.87613e-06 0)
(0.00105656 2.18678e-06 0)
(0.00105498 2.53022e-06 0)
(0.00105316 2.91143e-06 0)
(0.00105107 3.33585e-06 0)
(0.00104868 3.80949e-06 0)
(0.00104595 4.33894e-06 0)
(0.00104285 4.93144e-06 0)
(0.00103932 5.59495e-06 0)
(0.00103532 6.33818e-06 0)
(0.0010308 7.17064e-06 0)
(0.00102568 8.1027e-06 0)
(0.00101989 9.14557e-06 0)
(0.00101337 1.03113e-05 0)
(0.00100601 1.16129e-05 0)
(0.000997733 1.30639e-05 0)
(0.000988419 1.46787e-05 0)
(0.000977956 1.64722e-05 0)
(0.000966218 1.84593e-05 0)
(0.000953067 2.06551e-05 0)
(0.000938355 2.3074e-05 0)
(0.000921926 2.5729e-05 0)
(0.000903611 2.86326e-05 0)
(0.000883239 3.17919e-05 0)
(0.000860626 3.52149e-05 0)
(0.000835594 3.88976e-05 0)
(0.000807956 4.28409e-05 0)
(0.000777541 4.70219e-05 0)
(0.000744177 5.14317e-05 0)
(0.000707724 5.60203e-05 0)
(0.000668052 6.07651e-05 0)
(0.000625077 6.55856e-05 0)
(0.000578752 7.04381e-05 0)
(0.00052908 7.52175e-05 0)
(0.000476134 7.98526e-05 0)
(0.000420039 8.4226e-05 0)
(0.000361012 8.82451e-05 0)
(0.000299328 9.17947e-05 0)
(0.000235349 9.47799e-05 0)
(0.000169499 9.71063e-05 0)
(0.000102267 9.87022e-05 0)
(3.41841e-05 9.95135e-05 0)
(0.00106305 1.52725e-07 0)
(0.00106293 4.60508e-07 0)
(0.00106269 7.75328e-07 0)
(0.00106232 1.10199e-06 0)
(0.00106182 1.44545e-06 0)
(0.00106118 1.81093e-06 0)
(0.00106039 2.20394e-06 0)
(0.00105944 2.63036e-06 0)
(0.00105831 3.09657e-06 0)
(0.00105699 3.60945e-06 0)
(0.00105546 4.17652e-06 0)
(0.00105369 4.80601e-06 0)
(0.00105166 5.50697e-06 0)
(0.00104933 6.28931e-06 0)
(0.00104668 7.16397e-06 0)
(0.00104366 8.14296e-06 0)
(0.00104024 9.2395e-06 0)
(0.00103635 1.0468e-05 0)
(0.00103195 1.18444e-05 0)
(0.00102696 1.33859e-05 0)
(0.00102133 1.51112e-05 0)
(0.00101498 1.70404e-05 0)
(0.00100781 1.91951e-05 0)
(0.000999731 2.15983e-05 0)
(0.000990641 2.4274e-05 0)
(0.000980421 2.72472e-05 0)
(0.000968945 3.05435e-05 0)
(0.000956076 3.41879e-05 0)
(0.000941665 3.82058e-05 0)
(0.000925552 4.2619e-05 0)
(0.000907567 4.74496e-05 0)
(0.000887535 5.27103e-05 0)
(0.000865265 5.84162e-05 0)
(0.000840574 6.4561e-05 0)
(0.000813262 7.11498e-05 0)
(0.000783154 7.8142e-05 0)
(0.000750059 8.55303e-05 0)
(0.000713826 9.32239e-05 0)
(0.000674308 0.000101197 0)
(0.000631406 0.000109302 0)
(0.000585057 0.000117479 0)
(0.000535245 0.000125538 0)
(0.000482036 0.000133369 0)
(0.00042554 0.000140765 0)
(0.000365975 0.000147572 0)
(0.000303613 0.000153591 0)
(0.000238833 0.000158658 0)
(0.000172072 0.000162611 0)
(0.000103846 0.000165324 0)
(3.47165e-05 0.000166704 0)
(0.00106341 2.10653e-07 0)
(0.0010633 6.35183e-07 0)
(0.00106306 1.06943e-06 0)
(0.00106271 1.52002e-06 0)
(0.00106223 1.99383e-06 0)
(0.00106162 2.49803e-06 0)
(0.00106087 3.04027e-06 0)
(0.00105996 3.62867e-06 0)
(0.00105888 4.27203e-06 0)
(0.00105762 4.9799e-06 0)
(0.00105616 5.76268e-06 0)
(0.00105447 6.63177e-06 0)
(0.00105252 7.59969e-06 0)
(0.0010503 8.68023e-06 0)
(0.00104777 9.88856e-06 0)
(0.00104488 1.12414e-05 0)
(0.0010416 1.2757e-05 0)
(0.00103787 1.44557e-05 0)
(0.00103365 1.63595e-05 0)
(0.00102888 1.84925e-05 0)
(0.00102347 2.08809e-05 0)
(0.00101737 2.35529e-05 0)
(0.00101048 2.6539e-05 0)
(0.00100271 2.98714e-05 0)
(0.00099395 3.35843e-05 0)
(0.000984095 3.77132e-05 0)
(0.000973014 4.22945e-05 0)
(0.00096057 4.73645e-05 0)
(0.000946611 5.29597e-05 0)
(0.000930977 5.91123e-05 0)
(0.000913492 6.58553e-05 0)
(0.000893977 7.32079e-05 0)
(0.00087223 8.11956e-05 0)
(0.000848063 8.98092e-05 0)
(0.000821254 9.90637e-05 0)
(0.000791623 0.000108899 0)
(0.000758945 0.000119316 0)
(0.000723064 0.00013018 0)
(0.000683795 0.000141469 0)
(0.00064102 0.000152964 0)
(0.00059465 0.000164596 0)
(0.000544639 0.000176083 0)
(0.000491044 0.000187275 0)
(0.000433947 0.000197866 0)
(0.000373571 0.000207637 0)
(0.000310183 0.000216291 0)
(0.000244181 0.00022359 0)
(0.000176026 0.00022929 0)
(0.000106275 0.000233208 0)
(3.55353e-05 0.000235201 0)
(0.00106388 2.65467e-07 0)
(0.00106377 8.00469e-07 0)
(0.00106356 1.34773e-06 0)
(0.00106322 1.91563e-06 0)
(0.00106278 2.51283e-06 0)
(0.0010622 3.1484e-06 0)
(0.00106149 3.83199e-06 0)
(0.00106064 4.57388e-06 0)
(0.00105963 5.38519e-06 0)
(0.00105845 6.278e-06 0)
(0.00105707 7.26548e-06 0)
(0.00105549 8.36209e-06 0)
(0.00105366 9.5837e-06 0)
(0.00105157 1.09478e-05 0)
(0.00104919 1.24737e-05 0)
(0.00104647 1.41826e-05 0)
(0.00104338 1.6098e-05 0)
(0.00103988 1.82456e-05 0)
(0.0010359 2.06537e-05 0)
(0.00103139 2.3353e-05 0)
(0.00102629 2.63774e-05 0)
(0.00102052 2.97631e-05 0)
(0.00101399 3.35496e-05 0)
(0.00100663 3.77787e-05 0)
(0.000998319 4.2495e-05 0)
(0.00098895 4.77449e-05 0)
(0.000978396 5.35767e-05 0)
(0.000966519 6.00385e-05 0)
(0.000953168 6.71797e-05 0)
(0.000938179 7.50439e-05 0)
(0.000921369 8.36779e-05 0)
(0.000902556 9.31083e-05 0)
(0.00088152 0.000103376 0)
(0.00085807 0.000114469 0)
(0.000831954 0.000126422 0)
(0.000802985 0.000139146 0)
(0.000770896 0.000152676 0)
(0.000735518 0.000166802 0)
(0.000696618 0.000181556 0)
(0.000654051 0.000196585 0)
(0.000607694 0.000211879 0)
(0.000557452 0.000226989 0)
(0.000503365 0.00024178 0)
(0.000445478 0.000255798 0)
(0.000384015 0.000268778 0)
(0.000319234 0.000280296 0)
(0.000251562 0.000290038 0)
(0.000181489 0.000297658 0)
(0.000109634 0.000302903 0)
(3.66684e-05 0.000305574 0)
(0.00106446 3.16354e-07 0)
(0.00106436 9.53919e-07 0)
(0.00106416 1.60612e-06 0)
(0.00106385 2.28296e-06 0)
(0.00106344 2.99478e-06 0)
(0.00106291 3.75244e-06 0)
(0.00106226 4.56743e-06 0)
(0.00106148 5.45209e-06 0)
(0.00106055 6.41971e-06 0)
(0.00105946 7.48475e-06 0)
(0.0010582 8.66301e-06 0)
(0.00105674 9.97182e-06 0)
(0.00105506 1.14303e-05 0)
(0.00105313 1.30594e-05 0)
(0.00105093 1.48824e-05 0)
(0.00104843 1.69249e-05 0)
(0.00104557 1.92153e-05 0)
(0.00104233 2.17846e-05 0)
(0.00103865 2.46673e-05 0)
(0.00103448 2.79007e-05 0)
(0.00102975 3.15261e-05 0)
(0.00102439 3.5588e-05 0)
(0.00101833 4.01347e-05 0)
(0.00101146 4.52181e-05 0)
(0.00100371 5.08934e-05 0)
(0.000994946 5.72186e-05 0)
(0.000985052 6.42547e-05 0)
(0.000973889 7.20625e-05 0)
(0.000961303 8.07062e-05 0)
(0.000947131 9.0242e-05 0)
(0.00093118 0.000100734 0)
(0.000913265 0.000112216 0)
(0.000893145 0.000124753 0)
(0.000870628 0.000138325 0)
(0.000845416 0.000153001 0)
(0.000817329 0.000168657 0)
(0.000786025 0.000185377 0)
(0.000751342 0.000202873 0)
(0.000712957 0.000221234 0)
(0.000670711 0.000239996 0)
(0.00062442 0.000259174 0)
(0.000573917 0.000278201 0)
(0.000519252 0.000296907 0)
(0.000460382 0.000314705 0)
(0.000397558 0.000331247 0)
(0.000331 0.000345975 0)
(0.000261181 0.000358468 0)
(0.000188622 0.000368264 0)
(0.000114026 0.000375019 0)
(3.81507e-05 0.000378463 0)
(0.00106512 3.62555e-07 0)
(0.00106504 1.09324e-06 0)
(0.00106486 1.84074e-06 0)
(0.00106458 2.61653e-06 0)
(0.00106422 3.43251e-06 0)
(0.00106374 4.30114e-06 0)
(0.00106316 5.23567e-06 0)
(0.00106246 6.25027e-06 0)
(0.00106162 7.36025e-06 0)
(0.00106065 8.5823e-06 0)
(0.00105951 9.93462e-06 0)
(0.0010582 1.14373e-05 0)
(0.00105669 1.31123e-05 0)
(0.00105495 1.4984e-05 0)
(0.00105297 1.70795e-05 0)
(0.00105072 1.94284e-05 0)
(0.00104814 2.20638e-05 0)
(0.00104521 2.5022e-05 0)
(0.00104189 2.83431e-05 0)
(0.00103811 3.20713e-05 0)
(0.00103382 3.62549e-05 0)
(0.00102895 4.09467e-05 0)
(0.00102342 4.62042e-05 0)
(0.00101716 5.20891e-05 0)
(0.00101007 5.8668e-05 0)
(0.00100203 6.60111e-05 0)
(0.000992931 7.41931e-05 0)
(0.000982628 8.32888e-05 0)
(0.000970969 9.33792e-05 0)
(0.00095779 0.000104535 0)
(0.000942886 0.000116841 0)
(0.000926075 0.000130343 0)
(0.000907086 0.000145137 0)
(0.00088573 0.000161191 0)
(0.000861655 0.000178637 0)
(0.000834686 0.000197283 0)
(0.0008044 0.000217338 0)
(0.000770629 0.000238327 0)
(0.000732968 0.00026058 0)
(0.000691201 0.000283267 0)
(0.000645103 0.000306739 0)
(0.000594399 0.000329972 0)
(0.000539109 0.000353018 0)
(0.000479103 0.000374975 0)
(0.000414634 0.000395512 0)
(0.000345889 0.000413854 0)
(0.000273388 0.000429482 0)
(0.000197695 0.000441769 0)
(0.00011962 0.000450265 0)
(4.00404e-05 0.000454602 0)
(0.00106588 4.03368e-07 0)
(0.0010658 1.21632e-06 0)
(0.00106565 2.04803e-06 0)
(0.00106541 2.91129e-06 0)
(0.00106509 3.81937e-06 0)
(0.00106468 4.78621e-06 0)
(0.00106417 5.82657e-06 0)
(0.00106356 6.95632e-06 0)
(0.00106283 8.19259e-06 0)
(0.00106198 9.55404e-06 0)
(0.00106099 1.10611e-05 0)
(0.00105985 1.27363e-05 0)
(0.00105853 1.46044e-05 0)
(0.00105702 1.66928e-05 0)
(0.00105528 1.9032e-05 0)
(0.00105331 2.16555e-05 0)
(0.00105105 2.46009e-05 0)
(0.00104848 2.79093e-05 0)
(0.00104556 3.16265e-05 0)
(0.00104223 3.58029e-05 0)
(0.00103844 4.0494e-05 0)
(0.00103413 4.57608e-05 0)
(0.00102924 5.16695e-05 0)
(0.00102367 5.82925e-05 0)
(0.00101734 6.57077e-05 0)
(0.00101015 7.3998e-05 0)
(0.00100197 8.32527e-05 0)
(0.000992676 9.3562e-05 0)
(0.000982107 0.000105026 0)
(0.000970105 0.00011773 0)
(0.000956451 0.000131787 0)
(0.000940971 0.000147252 0)
(0.000923351 0.00016426 0)
(0.000903431 0.000182773 0)
(0.000880756 0.000202987 0)
(0.000855224 0.000224658 0)
(0.000826214 0.000248101 0)
(0.000793684 0.000272731 0)
(0.000756961 0.000298989 0)
(0.000715908 0.000325931 0)
(0.000670152 0.000353919 0)
(0.000619232 0.000381891 0)
(0.000563318 0.000409761 0)
(0.000501991 0.000436517 0)
(0.000435628 0.000461662 0)
(0.000364262 0.000484245 0)
(0.000288516 0.000503569 0)
(0.000208973 0.000518822 0)
(0.000126591 0.000529396 0)
(4.23973e-05 0.000534805 0)
(0.00106671 4.38177e-07 0)
(0.00106665 1.3213e-06 0)
(0.00106652 2.22485e-06 0)
(0.00106632 3.16277e-06 0)
(0.00106605 4.14952e-06 0)
(0.00106571 5.20028e-06 0)
(0.00106528 6.33119e-06 0)
(0.00106477 7.55955e-06 0)
(0.00106417 8.90409e-06 0)
(0.00106345 1.03852e-05 0)
(0.00106262 1.20254e-05 0)
(0.00106167 1.38492e-05 0)
(0.00106056 1.58839e-05 0)
(0.00105929 1.81597e-05 0)
(0.00105783 2.07101e-05 0)
(0.00105617 2.35724e-05 0)
(0.00105427 2.67879e-05 0)
(0.00105209 3.04025e-05 0)
(0.00104962 3.44673e-05 0)
(0.00104679 3.90386e-05 0)
(0.00104357 4.41788e-05 0)
(0.00103989 4.99567e-05 0)
(0.00103569 5.64477e-05 0)
(0.00103091 6.37342e-05 0)
(0.00102545 7.19061e-05 0)
(0.00101921 8.10596e-05 0)
(0.00101209 9.12997e-05 0)
(0.00100395 0.000102733 0)
(0.000994633 0.000115481 0)
(0.000983993 0.000129648 0)
(0.000971792 0.000145379 0)
(0.00095787 0.000162739 0)
(0.000941866 0.000181927 0)
(0.00092365 0.00020287 0)
(0.000902667 0.000225916 0)
(0.00087886 0.000250639 0)
(0.000851471 0.000277739 0)
(0.000820456 0.000306071 0)
(0.000785058 0.000336952 0)
(0.000744986 0.000368215 0)
(0.000699896 0.000401639 0)
(0.000649077 0.000434589 0)
(0.000592597 0.000468001 0)
(0.000529921 0.000500047 0)
(0.000461367 0.000530487 0)
(0.000386922 0.000557946 0)
(0.000307243 0.000581605 0)
(0.000222985 0.000600361 0)
(0.00013527 0.000613416 0)
(4.53358e-05 0.000620108 0)
(0.0010676 4.66447e-07 0)
(0.00106755 1.40657e-06 0)
(0.00106745 2.36849e-06 0)
(0.0010673 3.36711e-06 0)
(0.00106708 4.41786e-06 0)
(0.00106681 5.53699e-06 0)
(0.00106648 6.74174e-06 0)
(0.00106608 8.05063e-06 0)
(0.0010656 9.48374e-06 0)
(0.00106504 1.1063e-05 0)
(0.00106438 1.28124e-05 0)
(0.00106363 1.47585e-05 0)
(0.00106275 1.69307e-05 0)
(0.00106174 1.93616e-05 0)
(0.00106058 2.20874e-05 0)
(0.00105926 2.51485e-05 0)
(0.00105774 2.859e-05 0)
(0.001056 3.24618e-05 0)
(0.00105401 3.68199e-05 0)
(0.00105174 4.17261e-05 0)
(0.00104913 4.72494e-05 0)
(0.00104615 5.34659e-05 0)
(0.00104273 6.046e-05 0)
(0.00103881 6.8324e-05 0)
(0.00103431 7.71599e-05 0)
(0.00102914 8.70773e-05 0)
(0.00102319 9.81976e-05 0)
(0.00101635 0.000110645 0)
(0.00100846 0.000124564 0)
(0.000999381 0.000140078 0)
(0.000988853 0.000157369 0)
(0.000976757 0.000176517 0)
(0.000962646 0.000197778 0)
(0.000946504 0.000221079 0)
(0.00092753 0.000246859 0)
(0.000905968 0.000274658 0)
(0.000880492 0.000305282 0)
(0.000851664 0.000337578 0)
(0.00081781 0.000372816 0)
(0.000779248 0.000409108 0)
(0.000735145 0.000447677 0)
(0.000684212 0.000486721 0)
(0.000627413 0.00052629 0)
(0.000563176 0.000564834 0)
(0.000492321 0.000601588 0)
(0.000414314 0.000635056 0)
(0.000330047 0.000664047 0)
(0.000240122 0.000687175 0)
(0.000145927 0.000703335 0)
(4.89495e-05 0.000711642 0)
(0.00106854 4.87733e-07 0)
(0.00106851 1.47078e-06 0)
(0.00106844 2.47669e-06 0)
(0.00106833 3.52108e-06 0)
(0.00106818 4.62017e-06 0)
(0.00106798 5.791e-06 0)
(0.00106775 7.05169e-06 0)
(0.00106746 8.42173e-06 0)
(0.00106712 9.92227e-06 0)
(0.00106671 1.15764e-05 0)
(0.00106624 1.34095e-05 0)
(0.0010657 1.54496e-05 0)
(0.00106507 1.77278e-05 0)
(0.00106434 2.02787e-05 0)
(0.0010635 2.3141e-05 0)
(0.00106254 2.63576e-05 0)
(0.00106143 2.99767e-05 0)
(0.00106015 3.4052e-05 0)
(0.00105869 3.86436e-05 0)
(0.001057 4.38184e-05 0)
(0.00105506 4.96514e-05 0)
(0.00105282 5.62257e-05 0)
(0.00105024 6.36338e-05 0)
(0.00104726 7.19782e-05 0)
(0.00104381 8.13723e-05 0)
(0.00103981 9.19396e-05 0)
(0.00103516 0.000103818 0)
(0.00102976 0.000117151 0)
(0.00102345 0.000132108 0)
(0.00101612 0.000148836 0)
(0.00100747 0.00016756 0)
(0.000997438 0.00018837 0)
(0.0009855 0.000211629 0)
(0.000971708 0.000237185 0)
(0.000955129 0.000265797 0)
(0.000936066 0.000296555 0)
(0.000913081 0.000331291 0)
(0.000886584 0.000367224 0)
(0.000855098 0.000408461 0)
(0.000818287 0.000448949 0)
(0.000775893 0.000495364 0)
(0.000726053 0.000540095 0)
(0.000669083 0.000586996 0)
(0.000603651 0.00063244 0)
(0.000530126 0.000676533 0)
(0.000448079 0.000716962 0)
(0.000358276 0.000752332 0)
(0.000261454 0.000780742 0)
(0.000159227 0.00080071 0)
(5.34699e-05 0.00081101 0)
(0.00106952 5.01697e-07 0)
(0.0010695 1.51291e-06 0)
(0.00106946 2.54772e-06 0)
(0.00106939 3.62223e-06 0)
(0.00106931 4.7532e-06 0)
(0.0010692 5.95822e-06 0)
(0.00106906 7.25604e-06 0)
(0.00106889 8.66684e-06 0)
(0.00106869 1.02125e-05 0)
(0.00106845 1.1917e-05 0)
(0.00106818 1.38066e-05 0)
(0.00106785 1.59107e-05 0)
(0.00106748 1.82616e-05 0)
(0.00106704 2.08954e-05 0)
(0.00106654 2.38526e-05 0)
(0.00106595 2.71783e-05 0)
(0.00106527 3.09232e-05 0)
(0.00106449 3.5144e-05 0)
(0.00106357 3.99045e-05 0)
(0.00106251 4.52759e-05 0)
(0.00106128 5.13384e-05 0)
(0.00105984 5.81814e-05 0)
(0.00105815 6.5905e-05 0)
(0.00105617 7.46209e-05 0)
(0.00105385 8.44536e-05 0)
(0.00105112 9.55399e-05 0)
(0.00104788 0.000108035 0)
(0.00104405 0.0001221 0)
(0.00103949 0.00013793 0)
(0.00103409 0.000155699 0)
(0.00102756 0.000175668 0)
(0.00101991 0.000197964 0)
(0.00101044 0.000222999 0)
(0.000999542 0.000250678 0)
(0.000985662 0.00028179 0)
(0.000970097 0.000315591 0)
(0.000949688 0.000353705 0)
(0.000927225 0.000394032 0)
(0.000897831 0.000439459 0)
(0.000864338 0.0004863 0)
(0.000824391 0.000537501 0)
(0.000773934 0.000590791 0)
(0.000717832 0.000645714 0)
(0.000650847 0.000700485 0)
(0.000575081 0.000753643 0)
(0.000488533 0.000803072 0)
(0.000392498 0.00084664 0)
(0.000287491 0.000881963 0)
(0.000175563 0.000906929 0)
(5.90351e-05 0.000919865 0)
(0.00107052 5.08107e-07 0)
(0.00107051 1.53227e-06 0)
(0.0010705 2.58039e-06 0)
(0.00107049 3.66886e-06 0)
(0.00107046 4.8147e-06 0)
(0.00107043 6.03581e-06 0)
(0.0010704 7.35129e-06 0)
(0.00107035 8.78168e-06 0)
(0.0010703 1.03493e-05 0)
(0.00107023 1.20787e-05 0)
(0.00107015 1.39968e-05 0)
(0.00107006 1.61335e-05 0)
(0.00106995 1.85221e-05 0)
(0.00106981 2.11998e-05 0)
(0.00106965 2.42083e-05 0)
(0.00106946 2.75942e-05 0)
(0.00106923 3.14101e-05 0)
(0.00106895 3.57151e-05 0)
(0.00106861 4.05756e-05 0)
(0.0010682 4.60666e-05 0)
(0.0010677 5.22723e-05 0)
(0.00106709 5.92876e-05 0)
(0.00106634 6.72193e-05 0)
(0.00106542 7.61871e-05 0)
(0.00106429 8.6326e-05 0)
(0.0010629 9.77856e-05 0)
(0.00106117 0.000110737 0)
(0.00105904 0.00012536 0)
(0.00105635 0.000141878 0)
(0.00105307 0.000160489 0)
(0.00104886 0.000181506 0)
(0.00104378 0.00020507 0)
(0.00103712 0.000231735 0)
(0.00102927 0.000261283 0)
(0.00101869 0.000295039 0)
(0.00100648 0.000331397 0)
(0.000989889 0.000374162 0)
(0.000970552 0.000417301 0)
(0.000945445 0.000471567 0)
(0.000914288 0.000520082 0)
(0.000878208 0.000585607 0)
(0.000832013 0.000644502 0)
(0.000776493 0.000708618 0)
(0.000709333 0.000772519 0)
(0.000630576 0.000836075 0)
(0.00053914 0.000896039 0)
(0.000435525 0.000949529 0)
(0.000320488 0.00099337 0)
(0.000196341 0.00102461 0)
(6.61367e-05 0.00104089 0)
(0.00107152 5.0684e-07 0)
(0.00107153 1.52847e-06 0)
(0.00107155 2.57408e-06 0)
(0.00107158 3.66007e-06 0)
(0.00107162 4.80347e-06 0)
(0.00107168 6.02225e-06 0)
(0.00107175 7.33553e-06 0)
(0.00107183 8.76394e-06 0)
(0.00107192 1.03299e-05 0)
(0.00107202 1.20581e-05 0)
(0.00107215 1.39757e-05 0)
(0.00107228 1.61129e-05 0)
(0.00107244 1.85034e-05 0)
(0.00107261 2.11848e-05 0)
(0.0010728 2.41994e-05 0)
(0.001073 2.75948e-05 0)
(0.00107323 3.14247e-05 0)
(0.00107346 3.57496e-05 0)
(0.00107371 4.06379e-05 0)
(0.00107397 4.6167e-05 0)
(0.00107422 5.24244e-05 0)
(0.00107447 5.9509e-05 0)
(0.0010747 6.75331e-05 0)
(0.00107488 7.66231e-05 0)
(0.001075 8.69229e-05 0)
(0.00107502 9.85935e-05 0)
(0.00107488 0.00011182 0)
(0.00107455 0.000126803 0)
(0.00107388 0.000143784 0)
(0.0010729 0.000162998 0)
(0.00107122 0.000184783 0)
(0.00106909 0.000209356 0)
(0.00106549 0.000237264 0)
(0.00106153 0.000268501 0)
(0.00105432 0.000304175 0)
(0.00104757 0.00034342 0)
(0.0010338 0.000388829 0)
(0.0010226 0.000437091 0)
(0.000998472 0.000493978 0)
(0.000976004 0.000551749 0)
(0.000946219 0.0006167 0)
(0.000894383 0.000689261 0)
(0.000843184 0.000764791 0)
(0.000775649 0.000842505 0)
(0.000696028 0.000919646 0)
(0.000599624 0.000993503 0)
(0.000487802 0.00106038 0)
(0.000361009 0.00111592 0)
(0.000222093 0.00115586 0)
(7.49753e-05 0.00117679 0)
(0.00107251 4.97894e-07 0)
(0.00107254 1.50151e-06 0)
(0.00107259 2.52876e-06 0)
(0.00107267 3.5958e-06 0)
(0.00107278 4.71944e-06 0)
(0.00107291 5.91739e-06 0)
(0.00107308 7.20854e-06 0)
(0.00107328 8.61329e-06 0)
(0.00107352 1.01538e-05 0)
(0.0010738 1.18546e-05 0)
(0.00107412 1.37426e-05 0)
(0.00107449 1.58477e-05 0)
(0.00107491 1.82036e-05 0)
(0.00107539 2.08478e-05 0)
(0.00107593 2.38225e-05 0)
(0.00107653 2.71757e-05 0)
(0.00107721 3.09611e-05 0)
(0.00107797 3.52398e-05 0)
(0.00107881 4.00812e-05 0)
(0.00107974 4.55639e-05 0)
(0.00108076 5.17773e-05 0)
(0.00108188 5.88231e-05 0)
(0.0010831 6.68171e-05 0)
(0.00108441 7.58911e-05 0)
(0.00108581 8.61956e-05 0)
(0.00108728 9.79013e-05 0)
(0.00108879 0.000111205 0)
(0.00109033 0.000126325 0)
(0.00109179 0.000143522 0)
(0.00109321 0.000163065 0)
(0.00109425 0.000185323 0)
(0.00109517 0.000210565 0)
(0.00109503 0.000239417 0)
(0.00109479 0.000271885 0)
(0.00109205 0.000309456 0)
(0.00108937 0.000350615 0)
(0.00108161 0.000400416 0)
(0.00107351 0.000450024 0)
(0.00105771 0.000520757 0)
(0.00103445 0.000568623 0)
(0.00101285 0.000669638 0)
(0.000977017 0.000745975 0)
(0.000926542 0.000826966 0)
(0.000860958 0.000917414 0)
(0.000778426 0.00100953 0)
(0.000676943 0.00110065 0)
(0.00055539 0.00118383 0)
(0.00041397 0.00125397 0)
(0.000255945 0.00130503 0)
(8.6637e-05 0.00133205 0)
(0.00107348 4.81379e-07 0)
(0.00107352 1.45173e-06 0)
(0.0010736 2.44499e-06 0)
(0.00107373 3.47685e-06 0)
(0.0010739 4.56361e-06 0)
(0.00107412 5.72247e-06 0)
(0.00107439 6.97179e-06 0)
(0.00107471 8.3314e-06 0)
(0.00107509 9.82295e-06 0)
(0.00107554 1.14702e-05 0)
(0.00107606 1.32995e-05 0)
(0.00107665 1.53402e-05 0)
(0.00107733 1.76252e-05 0)
(0.00107811 2.01912e-05 0)
(0.00107899 2.30801e-05 0)
(0.00107999 2.63388e-05 0)
(0.00108112 3.00206e-05 0)
(0.00108239 3.41863e-05 0)
(0.00108382 3.89047e-05 0)
(0.00108542 4.42545e-05 0)
(0.00108721 5.03256e-05 0)
(0.0010892 5.72206e-05 0)
(0.00109141 6.5057e-05 0)
(0.00109386 7.39697e-05 0)
(0.00109655 8.41135e-05 0)
(0.00109951 9.56658e-05 0)
(0.00110271 0.000108832 0)
(0.00110619 0.000123846 0)
(0.00110986 0.000140981 0)
(0.00111383 0.000160544 0)
(0.00111773 0.000182908 0)
(0.00112206 0.000208454 0)
(0.00112553 0.000237738 0)
(0.00113011 0.000271121 0)
(0.00113141 0.000309648 0)
(0.00113664 0.0003531 0)
(0.00113114 0.000404418 0)
(0.00114043 0.00045984 0)
(0.0011146 0.000531263 0)
(0.0011458 0.000596055 0)
(0.00113091 0.000664039 0)
(0.00102172 0.000648805 0)
(0.000998876 0.000749209 0)
(0.000950812 0.000858578 0)
(0.000879469 0.000973433 0)
(0.000783023 0.00109051 0)
(0.000659887 0.00120547 0)
(0.000511328 0.00131013 0)
(0.000339791 0.00139559 0)
(0.000150977 0.00145398 0)
(0.0010744 4.57523e-07 0)
(0.00107446 1.37981e-06 0)
(0.00107457 2.32393e-06 0)
(0.00107474 3.30485e-06 0)
(0.00107497 4.33811e-06 0)
(0.00107527 5.44013e-06 0)
(0.00107564 6.62845e-06 0)
(0.00107608 7.92202e-06 0)
(0.0010766 9.34156e-06 0)
(0.00107721 1.09098e-05 0)
(0.00107791 1.26521e-05 0)
(0.00107873 1.45967e-05 0)
(0.00107966 1.6775e-05 0)
(0.00108073 1.92227e-05 0)
(0.00108195 2.19801e-05 0)
(0.00108333 2.50927e-05 0)
(0.0010849 2.86124e-05 0)
(0.00108667 3.25982e-05 0)
(0.00108867 3.71175e-05 0)
(0.00109092 4.22476e-05 0)
(0.00109346 4.8077e-05 0)
(0.00109631 5.47073e-05 0)
(0.0010995 6.22557e-05 0)
(0.00110307 7.08572e-05 0)
(0.00110705 8.06678e-05 0)
(0.00111148 9.18687e-05 0)
(0.00111638 0.000104668 0)
(0.00112181 0.000119313 0)
(0.00112773 0.000136081 0)
(0.00113427 0.000155315 0)
(0.00114116 0.000177375 0)
(0.00114886 0.000202768 0)
(0.00115639 0.000231891 0)
(0.0011652 0.000265637 0)
(0.00117232 0.000304093 0)
(0.00118217 0.000349438 0)
(0.00118612 0.000399539 0)
(0.00119771 0.000462213 0)
(0.00119109 0.000523135 0)
(0.00121145 0.000617988 0)
(0.00125546 0.00067433 0)
(0.00111703 0.000724094 0)
(0.00110273 0.000837065 0)
(0.00106269 0.000961708 0)
(0.000996217 0.00109507 0)
(0.00090056 0.0012317 0)
(0.000767411 0.00137154 0)
(0.000601728 0.00149908 0)
(0.000403517 0.00160162 0)
(0.000179652 0.00166734 0)
(0.00107528 4.26673e-07 0)
(0.00107535 1.28679e-06 0)
(0.00107549 2.16733e-06 0)
(0.0010757 3.08227e-06 0)
(0.00107599 4.04617e-06 0)
(0.00107636 5.07441e-06 0)
(0.00107682 6.1834e-06 0)
(0.00107737 7.39093e-06 0)
(0.00107802 8.71643e-06 0)
(0.00107878 1.01813e-05 0)
(0.00107967 1.18093e-05 0)
(0.00108069 1.36271e-05 0)
(0.00108186 1.56644e-05 0)
(0.00108321 1.79549e-05 0)
(0.00108474 2.05367e-05 0)
(0.00108649 2.34531e-05 0)
(0.00108847 2.67534e-05 0)
(0.00109072 3.04941e-05 0)
(0.00109327 3.47396e-05 0)
(0.00109615 3.95643e-05 0)
(0.00109941 4.50534e-05 0)
(0.00110308 5.13057e-05 0)
(0.00110722 5.84351e-05 0)
(0.00111189 6.65743e-05 0)
(0.00111712 7.58767e-05 0)
(0.00112301 8.6523e-05 0)
(0.00112958 9.87213e-05 0)
(0.00113695 0.000112723 0)
(0.00114511 0.000128807 0)
(0.00115426 0.000147338 0)
(0.00116419 0.000168679 0)
(0.00117544 0.000193393 0)
(0.00118709 0.000221889 0)
(0.0012008 0.000255161 0)
(0.00121346 0.000293411 0)
(0.0012301 0.000338758 0)
(0.00124157 0.00039007 0)
(0.00126146 0.000453096 0)
(0.00126713 0.000520201 0)
(0.00128744 0.000611905 0)
(0.00136697 0.000675034 0)
(0.00122639 0.00076782 0)
(0.00122445 0.000893962 0)
(0.00119651 0.00103722 0)
(0.00113991 0.00119478 0)
(0.00105504 0.00135095 0)
(0.000905749 0.00153448 0)
(0.000722483 0.0017013 0)
(0.000491 0.00183622 0)
(0.000219414 0.00192145 0)
(0.00107608 3.89279e-07 0)
(0.00107616 1.17403e-06 0)
(0.00107633 1.97746e-06 0)
(0.00107658 2.81235e-06 0)
(0.00107693 3.69205e-06 0)
(0.00107736 4.6306e-06 0)
(0.0010779 5.64308e-06 0)
(0.00107856 6.74578e-06 0)
(0.00107933 7.95653e-06 0)
(0.00108024 9.295e-06 0)
(0.00108129 1.07831e-05 0)
(0.0010825 1.24452e-05 0)
(0.0010839 1.43089e-05 0)
(0.0010855 1.64053e-05 0)
(0.00108733 1.87696e-05 0)
(0.00108942 2.1442e-05 0)
(0.00109179 2.44684e-05 0)
(0.00109449 2.79013e-05 0)
(0.00109755 3.18011e-05 0)
(0.00110102 3.62374e-05 0)
(0.00110495 4.12907e-05 0)
(0.00110941 4.70541e-05 0)
(0.00111445 5.36361e-05 0)
(0.00112015 6.11631e-05 0)
(0.00112658 6.97826e-05 0)
(0.00113385 7.96695e-05 0)
(0.00114204 9.10257e-05 0)
(0.00115127 0.000104099 0)
(0.00116162 0.000119165 0)
(0.00117331 0.000136594 0)
(0.00118626 0.000156734 0)
(0.00120096 0.000180209 0)
(0.00121687 0.00020735 0)
(0.00123524 0.000239401 0)
(0.00125417 0.000276205 0)
(0.00127681 0.000320818 0)
(0.00129808 0.000370747 0)
(0.00132513 0.000434597 0)
(0.00134659 0.000501616 0)
(0.00137548 0.00059614 0)
(0.00147235 0.000661254 0)
(0.00134727 0.000783186 0)
(0.00136349 0.000922436 0)
(0.0013537 0.00108726 0)
(0.00130926 0.00128368 0)
(0.00125523 0.00153917 0)
(0.00110202 0.00177104 0)
(0.000882521 0.00199497 0)
(0.000588117 0.00218274 0)
(0.000229064 0.00229723 0)
(0.00107681 3.45904e-07 0)
(0.0010769 1.04323e-06 0)
(0.00107709 1.75718e-06 0)
(0.00107738 2.49917e-06 0)
(0.00107777 3.28105e-06 0)
(0.00107827 4.11538e-06 0)
(0.00107889 5.01559e-06 0)
(0.00107963 5.99621e-06 0)
(0.00108051 7.0732e-06 0)
(0.00108155 8.26413e-06 0)
(0.00108275 9.58858e-06 0)
(0.00108414 1.10685e-05 0)
(0.00108574 1.27285e-05 0)
(0.00108758 1.45966e-05 0)
(0.00108967 1.67046e-05 0)
(0.00109207 1.90886e-05 0)
(0.0010948 2.17901e-05 0)
(0.0010979 2.48567e-05 0)
(0.00110143 2.83434e-05 0)
(0.00110544 3.23134e-05 0)
(0.00111 3.68404e-05 0)
(0.00111517 4.20098e-05 0)
(0.00112104 4.79216e-05 0)
(0.0011277 5.46928e-05 0)
(0.00113525 6.24608e-05 0)
(0.00114381 7.13894e-05 0)
(0.0011535 8.16689e-05 0)
(0.0011645 9.35356e-05 0)
(0.00117693 0.000107252 0)
(0.00119105 0.000123178 0)
(0.0012069 0.000141659 0)
(0.001225 0.000163298 0)
(0.00124505 0.000188476 0)
(0.00126822 0.000218343 0)
(0.00129318 0.000253053 0)
(0.00132267 0.000295117 0)
(0.00135297 0.000343527 0)
(0.0013896 0.000404273 0)
(0.00142531 0.000472513 0)
(0.00146712 0.000562694 0)
(0.00157887 0.000628186 0)
(0.0014784 0.00077093 0)
(0.0015193 0.000920553 0)
(0.00153866 0.00110232 0)
(0.00152927 0.00131937 0)
(0.00151512 0.0016334 0)
(0.00138073 0.00193991 0)
(0.00114679 0.00225921 0)
(0.000793398 0.00254486 0)
(0.000325138 0.00272856 0)
(0.00107744 2.97196e-07 0)
(0.00107755 8.96334e-07 0)
(0.00107776 1.50979e-06 0)
(0.00107807 2.14738e-06 0)
(0.00107851 2.81933e-06 0)
(0.00107906 3.53644e-06 0)
(0.00107975 4.31029e-06 0)
(0.00108057 5.15343e-06 0)
(0.00108155 6.07962e-06 0)
(0.0010827 7.10405e-06 0)
(0.00108403 8.24365e-06 0)
(0.00108558 9.51739e-06 0)
(0.00108736 1.09467e-05 0)
(0.0010894 1.25558e-05 0)
(0.00109173 1.43722e-05 0)
(0.0010944 1.64276e-05 0)
(0.00109744 1.87581e-05 0)
(0.0011009 2.14052e-05 0)
(0.00110485 2.44171e-05 0)
(0.00110934 2.78494e-05 0)
(0.00111445 3.17669e-05 0)
(0.00112026 3.62451e-05 0)
(0.00112687 4.13726e-05 0)
(0.00113438 4.72539e-05 0)
(0.00114293 5.40115e-05 0)
(0.00115266 6.1793e-05 0)
(0.00116372 7.07703e-05 0)
(0.00117632 8.11588e-05 0)
(0.00119065 9.31989e-05 0)
(0.001207 0.000107224 0)
(0.00122554 0.000123556 0)
(0.0012468 0.000142765 0)
(0.00127077 0.000165216 0)
(0.00129847 0.00019202 0)
(0.00132935 0.000223355 0)
(0.0013654 0.000261667 0)
(0.00140496 0.000306187 0)
(0.00145143 0.000362547 0)
(0.00150171 0.000427349 0)
(0.00155958 0.000512586 0)
(0.00168242 0.000572416 0)
(0.00161605 0.000729797 0)
(0.00168799 0.000885268 0)
(0.00174655 0.00108123 0)
(0.00178467 0.00132762 0)
(0.00183239 0.00169161 0)
(0.00174803 0.00209146 0)
(0.00152613 0.00254775 0)
(0.00110712 0.00300126 0)
(0.000471507 0.00332139 0)
(0.00107798 2.43905e-07 0)
(0.00107809 7.35618e-07 0)
(0.00107832 1.2391e-06 0)
(0.00107866 1.76242e-06 0)
(0.00107913 2.31399e-06 0)
(0.00107973 2.9027e-06 0)
(0.00108047 3.53807e-06 0)
(0.00108136 4.23045e-06 0)
(0.00108242 4.99116e-06 0)
(0.00108367 5.83273e-06 0)
(0.00108511 6.76912e-06 0)
(0.00108679 7.81602e-06 0)
(0.00108872 8.99112e-06 0)
(0.00109093 1.03145e-05 0)
(0.00109346 1.18089e-05 0)
(0.00109636 1.35007e-05 0)
(0.00109967 1.54198e-05 0)
(0.00110344 1.76009e-05 0)
(0.00110774 2.0084e-05 0)
(0.00111264 2.29157e-05 0)
(0.00111822 2.61503e-05 0)
(0.00112458 2.98513e-05 0)
(0.00113182 3.40933e-05 0)
(0.00114007 3.89646e-05 0)
(0.00114948 4.45695e-05 0)
(0.00116022 5.10338e-05 0)
(0.00117247 5.85049e-05 0)